
     Program BANDS v.7.4.1 starts on 16Jun2025 at 17:41:31 

     This program is part of the open-source Quantum ESPRESSO suite
     for quantum simulation of materials; please cite
         "P. Giannozzi et al., J. Phys.:Condens. Matter 21 395502 (2009);
         "P. Giannozzi et al., J. Phys.:Condens. Matter 29 465901 (2017);
         "P. Giannozzi et al., J. Chem. Phys. 152 154105 (2020);
          URL http://www.quantum-espresso.org", 
     in publications or presentations arising from this work. More details at
     http://www.quantum-espresso.org/quote

     Parallel version (MPI), running on     1 processors

     MPI processes distributed on     1 nodes
     5447 MiB available memory on the printing compute node when the environment starts


     Reading xml data from directory:

     ./tmp/InP_example/InP_example.save/

     IMPORTANT: XC functional enforced from input :
     Exchange-correlation= PBE
                           (   1   4   3   4   0   0   0)
     Any further DFT definition will be discarded
     Please, verify this is what you really want


     G-vector sticks info
     --------------------
     sticks:   dense  smooth     PW     G-vecs:    dense   smooth      PW
     Sum        1675     847    253                45863    16361    2685

     Using Slab Decomposition

     Reading collected, re-writing distributed wavefunctions
     Message from routine punch_plottable_bands:
     two consecutive same k, exiting
     Bands written to file ./outputs/InP_example/InP_example.bands.dat

 **************************************************************************

                    xk=(  -1.00000,   0.50000,   0.00000  )

     point group S_4 (-4)   
     there are  4 classes
     the character table:

       E     S4^3  C2    S4   
A      1.00  1.00  1.00  1.00
B      1.00 -1.00  1.00 -1.00
E      1.00  0.00 -1.00  0.00
E*     1.00  0.00 -1.00  0.00
     imaginary part
A      0.00  0.00  0.00  0.00
B      0.00  0.00  0.00  0.00
E      0.00  1.00  0.00 -1.00
E*     0.00 -1.00  0.00  1.00

     the symmetry operations in each class and the name of the first element:

     E        1
                                                                 
     S4^3     3
                                                                 
     C2       2
                                                                 
     S4       4
                                                                 

     Band symmetry, S_4 (-4)    point group:

     e(  1 -  1) =     -6.81891  eV     1   --> E    W_4       
     e(  2 -  2) =     -6.61359  eV     1   --> E*   W_2       
     e(  3 -  3) =     -6.57787  eV     1   --> B    W_3       
     e(  4 -  4) =     -6.54145  eV     1   --> B    W_3       
     e(  5 -  5) =     -6.50616  eV     1   --> A    W_1       
     e(  6 -  6) =     -1.50125  eV     1   --> E    W_4       
     e(  7 -  7) =      1.98010  eV     1   --> A    W_1       
     e(  8 -  8) =      4.62790  eV     1   --> B    W_3       
     e(  9 -  9) =      4.67485  eV     1   --> E*   W_2       
     e( 10 - 10) =     11.86451  eV     1   --> E*   W_2       
     e( 11 - 11) =     11.93433  eV     1   --> A    W_1       
     e( 12 - 12) =     13.13691  eV     1   --> E    W_4       
     e( 13 - 13) =     13.78521  eV     1   --> B    W_3       
     e( 14 - 14) =     17.72305  eV     1   --> B    W_3       
     e( 15 - 15) =     18.85533  eV     1   --> E*   W_2       
     e( 16 - 16) =     19.62667  eV     1   --> A    W_1       
     e( 17 - 17) =     19.66806  eV     1   --> E    W_4       
     e( 18 - 18) =     22.11104  eV     1   --> E*   W_2       
     e( 19 - 19) =     24.29865  eV     1   --> E*   W_2       
     e( 20 - 20) =     24.94803  eV     1   --> B    W_3       
     e( 21 - 21) =     25.03613  eV     1   --> E    W_4       
     e( 22 - 22) =     25.19303  eV     1   --> A    W_1       
     e( 23 - 23) =     26.12469  eV     1   --> A    W_1       
     e( 24 - 24) =     26.62054  eV     1   --> B    W_3       
     e( 25 - 25) =     29.53764  eV     1   --> E    W_4       
     e( 26 - 26) =     31.24627  eV     1   --> A    W_1       
     e( 27 - 27) =     31.55176  eV     1   --> E*   W_2       
     e( 28 - 28) =     31.60068  eV     1   --> E    W_4       
     e( 29 - 29) =     31.99802  eV     1   --> E*   W_2       
     e( 30 - 30) =     32.06035  eV     1   --> B    W_3       

 **************************************************************************

 **************************************************************************

                    xk=(  -0.97368,   0.50000,   0.02632  )

     point group C_1 (1)    
     there are  1 classes
     the character table:

       E    
A      1.00

     the symmetry operations in each class and the name of the first element:

     E        1
                                                                 

     Band symmetry, C_1 (1)     point group:

     e(  1 -  1) =     -6.81863  eV     1   --> A              
     e(  2 -  2) =     -6.61373  eV     1   --> A              
     e(  3 -  3) =     -6.57812  eV     1   --> A              
     e(  4 -  4) =     -6.54129  eV     1   --> A              
     e(  5 -  5) =     -6.50623  eV     1   --> A              
     e(  6 -  6) =     -1.50787  eV     1   --> A              
     e(  7 -  7) =      1.98469  eV     1   --> A              
     e(  8 -  8) =      4.55387  eV     1   --> A              
     e(  9 -  9) =      4.76523  eV     1   --> A              
     e( 10 - 10) =     11.79636  eV     1   --> A              
     e( 11 - 11) =     11.98788  eV     1   --> A              
     e( 12 - 12) =     13.10738  eV     1   --> A              
     e( 13 - 13) =     13.84784  eV     1   --> A              
     e( 14 - 14) =     17.61874  eV     1   --> A              
     e( 15 - 15) =     18.87612  eV     1   --> A              
     e( 16 - 16) =     19.45705  eV     1   --> A              
     e( 17 - 17) =     19.90600  eV     1   --> A              
     e( 18 - 18) =     22.08824  eV     1   --> A              
     e( 19 - 19) =     24.19674  eV     1   --> A              
     e( 20 - 20) =     24.69064  eV     1   --> A              
     e( 21 - 21) =     25.07492  eV     1   --> A              
     e( 22 - 22) =     25.48193  eV     1   --> A              
     e( 23 - 23) =     26.17679  eV     1   --> A              
     e( 24 - 24) =     26.66283  eV     1   --> A              
     e( 25 - 25) =     29.53182  eV     1   --> A              
     e( 26 - 26) =     31.24629  eV     1   --> A              
     e( 27 - 27) =     31.48072  eV     1   --> A              
     e( 28 - 28) =     31.53341  eV     1   --> A              
     e( 29 - 29) =     31.74230  eV     1   --> A              
     e( 30 - 30) =     32.30912  eV     1   --> A              

 **************************************************************************

 **************************************************************************

                    xk=(  -0.94737,   0.50000,   0.05263  )

     Band symmetry, C_1 (1)     point group:

     e(  1 -  1) =     -6.81781  eV     1   --> A              
     e(  2 -  2) =     -6.61421  eV     1   --> A              
     e(  3 -  3) =     -6.57898  eV     1   --> A              
     e(  4 -  4) =     -6.54084  eV     1   --> A              
     e(  5 -  5) =     -6.50642  eV     1   --> A              
     e(  6 -  6) =     -1.52732  eV     1   --> A              
     e(  7 -  7) =      1.99753  eV     1   --> A              
     e(  8 -  8) =      4.48044  eV     1   --> A              
     e(  9 -  9) =      4.88803  eV     1   --> A              
     e( 10 - 10) =     11.69650  eV     1   --> A              
     e( 11 - 11) =     12.03826  eV     1   --> A              
     e( 12 - 12) =     13.05592  eV     1   --> A              
     e( 13 - 13) =     14.00307  eV     1   --> A              
     e( 14 - 14) =     17.35420  eV     1   --> A              
     e( 15 - 15) =     18.90738  eV     1   --> A              
     e( 16 - 16) =     19.32818  eV     1   --> A              
     e( 17 - 17) =     20.21593  eV     1   --> A              
     e( 18 - 18) =     22.01566  eV     1   --> A              
     e( 19 - 19) =     23.94499  eV     1   --> A              
     e( 20 - 20) =     24.45618  eV     1   --> A              
     e( 21 - 21) =     25.09062  eV     1   --> A              
     e( 22 - 22) =     25.84645  eV     1   --> A              
     e( 23 - 23) =     26.31948  eV     1   --> A              
     e( 24 - 24) =     26.81876  eV     1   --> A              
     e( 25 - 25) =     29.51297  eV     1   --> A              
     e( 26 - 26) =     31.13423  eV     1   --> A              
     e( 27 - 27) =     31.24750  eV     1   --> A              
     e( 28 - 28) =     31.40560  eV     1   --> A              
     e( 29 - 29) =     31.68868  eV     1   --> A              
     e( 30 - 30) =     32.35314  eV     1   --> A              

 **************************************************************************

 **************************************************************************

                    xk=(  -0.92105,   0.50000,   0.07895  )

     Band symmetry, C_1 (1)     point group:

     e(  1 -  1) =     -6.81651  eV     1   --> A              
     e(  2 -  2) =     -6.61501  eV     1   --> A              
     e(  3 -  3) =     -6.58045  eV     1   --> A              
     e(  4 -  4) =     -6.54008  eV     1   --> A              
     e(  5 -  5) =     -6.50672  eV     1   --> A              
     e(  6 -  6) =     -1.55847  eV     1   --> A              
     e(  7 -  7) =      2.01595  eV     1   --> A              
     e(  8 -  8) =      4.43039  eV     1   --> A              
     e(  9 -  9) =      5.02137  eV     1   --> A              
     e( 10 - 10) =     11.59210  eV     1   --> A              
     e( 11 - 11) =     12.04759  eV     1   --> A              
     e( 12 - 12) =     13.03500  eV     1   --> A              
     e( 13 - 13) =     14.20738  eV     1   --> A              
     e( 14 - 14) =     17.00631  eV     1   --> A              
     e( 15 - 15) =     18.91006  eV     1   --> A              
     e( 16 - 16) =     19.24696  eV     1   --> A              
     e( 17 - 17) =     20.53591  eV     1   --> A              
     e( 18 - 18) =     21.89425  eV     1   --> A              
     e( 19 - 19) =     23.66952  eV     1   --> A              
     e( 20 - 20) =     24.26945  eV     1   --> A              
     e( 21 - 21) =     25.10758  eV     1   --> A              
     e( 22 - 22) =     26.10140  eV     1   --> A              
     e( 23 - 23) =     26.51535  eV     1   --> A              
     e( 24 - 24) =     27.14631  eV     1   --> A              
     e( 25 - 25) =     29.47836  eV     1   --> A              
     e( 26 - 26) =     30.73096  eV     1   --> A              
     e( 27 - 27) =     31.23453  eV     1   --> A              
     e( 28 - 28) =     31.25082  eV     1   --> A              
     e( 29 - 29) =     31.69257  eV     1   --> A              
     e( 30 - 30) =     32.23693  eV     1   --> A              

 **************************************************************************

 **************************************************************************

                    xk=(  -0.89474,   0.50000,   0.10526  )

     Band symmetry, C_1 (1)     point group:

     e(  1 -  1) =     -6.81473  eV     1   --> A              
     e(  2 -  2) =     -6.61605  eV     1   --> A              
     e(  3 -  3) =     -6.58260  eV     1   --> A              
     e(  4 -  4) =     -6.53892  eV     1   --> A              
     e(  5 -  5) =     -6.50705  eV     1   --> A              
     e(  6 -  6) =     -1.59962  eV     1   --> A              
     e(  7 -  7) =      2.03619  eV     1   --> A              
     e(  8 -  8) =      4.40854  eV     1   --> A              
     e(  9 -  9) =      5.16179  eV     1   --> A              
     e( 10 - 10) =     11.48526  eV     1   --> A              
     e( 11 - 11) =     12.01218  eV     1   --> A              
     e( 12 - 12) =     13.06599  eV     1   --> A              
     e( 13 - 13) =     14.43869  eV     1   --> A              
     e( 14 - 14) =     16.62438  eV     1   --> A              
     e( 15 - 15) =     18.87158  eV     1   --> A              
     e( 16 - 16) =     19.20314  eV     1   --> A              
     e( 17 - 17) =     20.78203  eV     1   --> A              
     e( 18 - 18) =     21.77585  eV     1   --> A              
     e( 19 - 19) =     23.42732  eV     1   --> A              
     e( 20 - 20) =     24.12351  eV     1   --> A              
     e( 21 - 21) =     25.12618  eV     1   --> A              
     e( 22 - 22) =     26.26736  eV     1   --> A              
     e( 23 - 23) =     26.72707  eV     1   --> A              
     e( 24 - 24) =     27.62040  eV     1   --> A              
     e( 25 - 25) =     29.42540  eV     1   --> A              
     e( 26 - 26) =     30.34079  eV     1   --> A              
     e( 27 - 27) =     31.05265  eV     1   --> A              
     e( 28 - 28) =     31.24673  eV     1   --> A              
     e( 29 - 29) =     31.71165  eV     1   --> A              
     e( 30 - 30) =     32.09058  eV     1   --> A              

 **************************************************************************

 **************************************************************************

                    xk=(  -0.86842,   0.50000,   0.13158  )

     Band symmetry, C_1 (1)     point group:

     e(  1 -  1) =     -6.81259  eV     1   --> A              
     e(  2 -  2) =     -6.61733  eV     1   --> A              
     e(  3 -  3) =     -6.58547  eV     1   --> A              
     e(  4 -  4) =     -6.53738  eV     1   --> A              
     e(  5 -  5) =     -6.50742  eV     1   --> A              
     e(  6 -  6) =     -1.64870  eV     1   --> A              
     e(  7 -  7) =      2.05400  eV     1   --> A              
     e(  8 -  8) =      4.41861  eV     1   --> A              
     e(  9 -  9) =      5.30644  eV     1   --> A              
     e( 10 - 10) =     11.37402  eV     1   --> A              
     e( 11 - 11) =     11.94733  eV     1   --> A              
     e( 12 - 12) =     13.14099  eV     1   --> A              
     e( 13 - 13) =     14.68464  eV     1   --> A              
     e( 14 - 14) =     16.23777  eV     1   --> A              
     e( 15 - 15) =     18.80179  eV     1   --> A              
     e( 16 - 16) =     19.17707  eV     1   --> A              
     e( 17 - 17) =     20.80186  eV     1   --> A              
     e( 18 - 18) =     21.80366  eV     1   --> A              
     e( 19 - 19) =     23.20128  eV     1   --> A              
     e( 20 - 20) =     24.04120  eV     1   --> A              
     e( 21 - 21) =     25.14625  eV     1   --> A              
     e( 22 - 22) =     26.40704  eV     1   --> A              
     e( 23 - 23) =     26.94104  eV     1   --> A              
     e( 24 - 24) =     28.16132  eV     1   --> A              
     e( 25 - 25) =     29.35281  eV     1   --> A              
     e( 26 - 26) =     29.98083  eV     1   --> A              
     e( 27 - 27) =     30.87349  eV     1   --> A              
     e( 28 - 28) =     31.24596  eV     1   --> A              
     e( 29 - 29) =     31.73912  eV     1   --> A              
     e( 30 - 30) =     31.95881  eV     1   --> A              

 **************************************************************************

 **************************************************************************

                    xk=(  -0.84211,   0.50000,   0.15789  )

     Band symmetry, C_1 (1)     point group:

     e(  1 -  1) =     -6.81010  eV     1   --> A              
     e(  2 -  2) =     -6.61876  eV     1   --> A              
     e(  3 -  3) =     -6.58900  eV     1   --> A              
     e(  4 -  4) =     -6.53544  eV     1   --> A              
     e(  5 -  5) =     -6.50774  eV     1   --> A              
     e(  6 -  6) =     -1.70355  eV     1   --> A              
     e(  7 -  7) =      2.06573  eV     1   --> A              
     e(  8 -  8) =      4.46319  eV     1   --> A              
     e(  9 -  9) =      5.45276  eV     1   --> A              
     e( 10 - 10) =     11.25460  eV     1   --> A              
     e( 11 - 11) =     11.87549  eV     1   --> A              
     e( 12 - 12) =     13.24062  eV     1   --> A              
     e( 13 - 13) =     14.93222  eV     1   --> A              
     e( 14 - 14) =     15.87270  eV     1   --> A              
     e( 15 - 15) =     18.71442  eV     1   --> A              
     e( 16 - 16) =     19.15144  eV     1   --> A              
     e( 17 - 17) =     20.58489  eV     1   --> A              
     e( 18 - 18) =     21.99570  eV     1   --> A              
     e( 19 - 19) =     22.96733  eV     1   --> A              
     e( 20 - 20) =     24.03452  eV     1   --> A              
     e( 21 - 21) =     25.17440  eV     1   --> A              
     e( 22 - 22) =     26.55444  eV     1   --> A              
     e( 23 - 23) =     27.14805  eV     1   --> A              
     e( 24 - 24) =     28.71165  eV     1   --> A              
     e( 25 - 25) =     29.27056  eV     1   --> A              
     e( 26 - 26) =     29.66249  eV     1   --> A              
     e( 27 - 27) =     30.72031  eV     1   --> A              
     e( 28 - 28) =     31.24549  eV     1   --> A              
     e( 29 - 29) =     31.74552  eV     1   --> A              
     e( 30 - 30) =     31.88829  eV     1   --> A              

 **************************************************************************

 **************************************************************************

                    xk=(  -0.81579,   0.50000,   0.18421  )

     Band symmetry, C_1 (1)     point group:

     e(  1 -  1) =     -6.80740  eV     1   --> A              
     e(  2 -  2) =     -6.62031  eV     1   --> A              
     e(  3 -  3) =     -6.59313  eV     1   --> A              
     e(  4 -  4) =     -6.53314  eV     1   --> A              
     e(  5 -  5) =     -6.50801  eV     1   --> A              
     e(  6 -  6) =     -1.76199  eV     1   --> A              
     e(  7 -  7) =      2.06899  eV     1   --> A              
     e(  8 -  8) =      4.54309  eV     1   --> A              
     e(  9 -  9) =      5.59823  eV     1   --> A              
     e( 10 - 10) =     11.12281  eV     1   --> A              
     e( 11 - 11) =     11.81431  eV     1   --> A              
     e( 12 - 12) =     13.34409  eV     1   --> A              
     e( 13 - 13) =     15.12770  eV     1   --> A              
     e( 14 - 14) =     15.59555  eV     1   --> A              
     e( 15 - 15) =     18.61509  eV     1   --> A              
     e( 16 - 16) =     19.11494  eV     1   --> A              
     e( 17 - 17) =     20.27852  eV     1   --> A              
     e( 18 - 18) =     22.20200  eV     1   --> A              
     e( 19 - 19) =     22.72551  eV     1   --> A              
     e( 20 - 20) =     24.09377  eV     1   --> A              
     e( 21 - 21) =     25.22210  eV     1   --> A              
     e( 22 - 22) =     26.71800  eV     1   --> A              
     e( 23 - 23) =     27.33721  eV     1   --> A              
     e( 24 - 24) =     29.08926  eV     1   --> A              
     e( 25 - 25) =     29.32919  eV     1   --> A              
     e( 26 - 26) =     29.39577  eV     1   --> A              
     e( 27 - 27) =     30.60461  eV     1   --> A              
     e( 28 - 28) =     31.24498  eV     1   --> A              
     e( 29 - 29) =     31.70491  eV     1   --> A              
     e( 30 - 30) =     31.92640  eV     1   --> A              

 **************************************************************************

 **************************************************************************

                    xk=(  -0.78947,   0.50000,   0.21053  )

     Band symmetry, C_1 (1)     point group:

     e(  1 -  1) =     -6.80457  eV     1   --> A              
     e(  2 -  2) =     -6.62193  eV     1   --> A              
     e(  3 -  3) =     -6.59770  eV     1   --> A              
     e(  4 -  4) =     -6.53056  eV     1   --> A              
     e(  5 -  5) =     -6.50820  eV     1   --> A              
     e(  6 -  6) =     -1.82203  eV     1   --> A              
     e(  7 -  7) =      2.06305  eV     1   --> A              
     e(  8 -  8) =      4.65723  eV     1   --> A              
     e(  9 -  9) =      5.74047  eV     1   --> A              
     e( 10 - 10) =     10.97597  eV     1   --> A              
     e( 11 - 11) =     11.77407  eV     1   --> A              
     e( 12 - 12) =     13.42838  eV     1   --> A              
     e( 13 - 13) =     15.05722  eV     1   --> A              
     e( 14 - 14) =     15.63754  eV     1   --> A              
     e( 15 - 15) =     18.50338  eV     1   --> A              
     e( 16 - 16) =     19.05810  eV     1   --> A              
     e( 17 - 17) =     19.97048  eV     1   --> A              
     e( 18 - 18) =     22.28021  eV     1   --> A              
     e( 19 - 19) =     22.54230  eV     1   --> A              
     e( 20 - 20) =     24.20243  eV     1   --> A              
     e( 21 - 21) =     25.30452  eV     1   --> A              
     e( 22 - 22) =     26.88668  eV     1   --> A              
     e( 23 - 23) =     27.50786  eV     1   --> A              
     e( 24 - 24) =     29.04209  eV     1   --> A              
     e( 25 - 25) =     29.18268  eV     1   --> A              
     e( 26 - 26) =     29.74449  eV     1   --> A              
     e( 27 - 27) =     30.53059  eV     1   --> A              
     e( 28 - 28) =     31.24508  eV     1   --> A              
     e( 29 - 29) =     31.72116  eV     1   --> A              
     e( 30 - 30) =     32.01497  eV     1   --> A              

 **************************************************************************

 **************************************************************************

                    xk=(  -0.76316,   0.50000,   0.23684  )

     Band symmetry, C_1 (1)     point group:

     e(  1 -  1) =     -6.80172  eV     1   --> A              
     e(  2 -  2) =     -6.62358  eV     1   --> A              
     e(  3 -  3) =     -6.60258  eV     1   --> A              
     e(  4 -  4) =     -6.52779  eV     1   --> A              
     e(  5 -  5) =     -6.50833  eV     1   --> A              
     e(  6 -  6) =     -1.88187  eV     1   --> A              
     e(  7 -  7) =      2.04871  eV     1   --> A              
     e(  8 -  8) =      4.80279  eV     1   --> A              
     e(  9 -  9) =      5.87716  eV     1   --> A              
     e( 10 - 10) =     10.81340  eV     1   --> A              
     e( 11 - 11) =     11.75899  eV     1   --> A              
     e( 12 - 12) =     13.46377  eV     1   --> A              
     e( 13 - 13) =     14.86223  eV     1   --> A              
     e( 14 - 14) =     15.88153  eV     1   --> A              
     e( 15 - 15) =     18.37467  eV     1   --> A              
     e( 16 - 16) =     18.97070  eV     1   --> A              
     e( 17 - 17) =     19.70973  eV     1   --> A              
     e( 18 - 18) =     22.09259  eV     1   --> A              
     e( 19 - 19) =     22.52621  eV     1   --> A              
     e( 20 - 20) =     24.34731  eV     1   --> A              
     e( 21 - 21) =     25.43236  eV     1   --> A              
     e( 22 - 22) =     27.02469  eV     1   --> A              
     e( 23 - 23) =     27.68258  eV     1   --> A              
     e( 24 - 24) =     28.92705  eV     1   --> A              
     e( 25 - 25) =     29.08495  eV     1   --> A              
     e( 26 - 26) =     30.04320  eV     1   --> A              
     e( 27 - 27) =     30.48551  eV     1   --> A              
     e( 28 - 28) =     31.24601  eV     1   --> A              
     e( 29 - 29) =     31.89446  eV     1   --> A              
     e( 30 - 30) =     32.12996  eV     1   --> A              

 **************************************************************************

 **************************************************************************

                    xk=(  -0.73684,   0.50000,   0.26316  )

     Band symmetry, C_1 (1)     point group:

     e(  1 -  1) =     -6.79894  eV     1   --> A              
     e(  2 -  2) =     -6.62521  eV     1   --> A              
     e(  3 -  3) =     -6.60755  eV     1   --> A              
     e(  4 -  4) =     -6.52492  eV     1   --> A              
     e(  5 -  5) =     -6.50839  eV     1   --> A              
     e(  6 -  6) =     -1.93994  eV     1   --> A              
     e(  7 -  7) =      2.02777  eV     1   --> A              
     e(  8 -  8) =      4.97574  eV     1   --> A              
     e(  9 -  9) =      6.00618  eV     1   --> A              
     e( 10 - 10) =     10.63571  eV     1   --> A              
     e( 11 - 11) =     11.76970  eV     1   --> A              
     e( 12 - 12) =     13.42103  eV     1   --> A              
     e( 13 - 13) =     14.73729  eV     1   --> A              
     e( 14 - 14) =     16.15608  eV     1   --> A              
     e( 15 - 15) =     18.22356  eV     1   --> A              
     e( 16 - 16) =     18.85176  eV     1   --> A              
     e( 17 - 17) =     19.52483  eV     1   --> A              
     e( 18 - 18) =     21.82792  eV     1   --> A              
     e( 19 - 19) =     22.48582  eV     1   --> A              
     e( 20 - 20) =     24.51890  eV     1   --> A              
     e( 21 - 21) =     25.60525  eV     1   --> A              
     e( 22 - 22) =     27.09162  eV     1   --> A              
     e( 23 - 23) =     27.89678  eV     1   --> A              
     e( 24 - 24) =     28.79558  eV     1   --> A              
     e( 25 - 25) =     29.08395  eV     1   --> A              
     e( 26 - 26) =     30.20097  eV     1   --> A              
     e( 27 - 27) =     30.42710  eV     1   --> A              
     e( 28 - 28) =     31.24709  eV     1   --> A              
     e( 29 - 29) =     32.22286  eV     1   --> A              
     e( 30 - 30) =     32.30449  eV     1   --> A              

 **************************************************************************

 **************************************************************************

                    xk=(  -0.71053,   0.50000,   0.28947  )

     Band symmetry, C_1 (1)     point group:

     e(  1 -  1) =     -6.79634  eV     1   --> A              
     e(  2 -  2) =     -6.62679  eV     1   --> A              
     e(  3 -  3) =     -6.61245  eV     1   --> A              
     e(  4 -  4) =     -6.52202  eV     1   --> A              
     e(  5 -  5) =     -6.50839  eV     1   --> A              
     e(  6 -  6) =     -1.99493  eV     1   --> A              
     e(  7 -  7) =      2.00247  eV     1   --> A              
     e(  8 -  8) =      5.17124  eV     1   --> A              
     e(  9 -  9) =      6.12557  eV     1   --> A              
     e( 10 - 10) =     10.44388  eV     1   --> A              
     e( 11 - 11) =     11.80490  eV     1   --> A              
     e( 12 - 12) =     13.29840  eV     1   --> A              
     e( 13 - 13) =     14.70470  eV     1   --> A              
     e( 14 - 14) =     16.42939  eV     1   --> A              
     e( 15 - 15) =     18.05410  eV     1   --> A              
     e( 16 - 16) =     18.72238  eV     1   --> A              
     e( 17 - 17) =     19.41115  eV     1   --> A              
     e( 18 - 18) =     21.55670  eV     1   --> A              
     e( 19 - 19) =     22.36586  eV     1   --> A              
     e( 20 - 20) =     24.70847  eV     1   --> A              
     e( 21 - 21) =     25.81152  eV     1   --> A              
     e( 22 - 22) =     27.08873  eV     1   --> A              
     e( 23 - 23) =     28.12515  eV     1   --> A              
     e( 24 - 24) =     28.72800  eV     1   --> A              
     e( 25 - 25) =     29.11137  eV     1   --> A              
     e( 26 - 26) =     30.26570  eV     1   --> A              
     e( 27 - 27) =     30.37383  eV     1   --> A              
     e( 28 - 28) =     31.24757  eV     1   --> A              
     e( 29 - 29) =     32.39436  eV     1   --> A              
     e( 30 - 30) =     32.77253  eV     1   --> A              

 **************************************************************************

 **************************************************************************

                    xk=(  -0.68421,   0.50000,   0.31579  )

     Band symmetry, C_1 (1)     point group:

     e(  1 -  1) =     -6.79397  eV     1   --> A              
     e(  2 -  2) =     -6.62828  eV     1   --> A              
     e(  3 -  3) =     -6.61708  eV     1   --> A              
     e(  4 -  4) =     -6.51919  eV     1   --> A              
     e(  5 -  5) =     -6.50836  eV     1   --> A              
     e(  6 -  6) =     -2.04572  eV     1   --> A              
     e(  7 -  7) =      1.97507  eV     1   --> A              
     e(  8 -  8) =      5.38397  eV     1   --> A              
     e(  9 -  9) =      6.23365  eV     1   --> A              
     e( 10 - 10) =     10.23943  eV     1   --> A              
     e( 11 - 11) =     11.86226  eV     1   --> A              
     e( 12 - 12) =     13.12916  eV     1   --> A              
     e( 13 - 13) =     14.73133  eV     1   --> A              
     e( 14 - 14) =     16.68088  eV     1   --> A              
     e( 15 - 15) =     17.89314  eV     1   --> A              
     e( 16 - 16) =     18.60671  eV     1   --> A              
     e( 17 - 17) =     19.34520  eV     1   --> A              
     e( 18 - 18) =     21.29269  eV     1   --> A              
     e( 19 - 19) =     22.17680  eV     1   --> A              
     e( 20 - 20) =     24.90754  eV     1   --> A              
     e( 21 - 21) =     26.03575  eV     1   --> A              
     e( 22 - 22) =     27.04998  eV     1   --> A              
     e( 23 - 23) =     28.24161  eV     1   --> A              
     e( 24 - 24) =     28.82445  eV     1   --> A              
     e( 25 - 25) =     29.13914  eV     1   --> A              
     e( 26 - 26) =     30.16292  eV     1   --> A              
     e( 27 - 27) =     30.48490  eV     1   --> A              
     e( 28 - 28) =     31.24782  eV     1   --> A              
     e( 29 - 29) =     32.54896  eV     1   --> A              
     e( 30 - 30) =     33.25318  eV     1   --> A              

 **************************************************************************

 **************************************************************************

                    xk=(  -0.65789,   0.50000,   0.34211  )

     Band symmetry, C_1 (1)     point group:

     e(  1 -  1) =     -6.79191  eV     1   --> A              
     e(  2 -  2) =     -6.62964  eV     1   --> A              
     e(  3 -  3) =     -6.62133  eV     1   --> A              
     e(  4 -  4) =     -6.51653  eV     1   --> A              
     e(  5 -  5) =     -6.50830  eV     1   --> A              
     e(  6 -  6) =     -2.09139  eV     1   --> A              
     e(  7 -  7) =      1.94760  eV     1   --> A              
     e(  8 -  8) =      5.60789  eV     1   --> A              
     e(  9 -  9) =      6.32907  eV     1   --> A              
     e( 10 - 10) =     10.02492  eV     1   --> A              
     e( 11 - 11) =     11.93839  eV     1   --> A              
     e( 12 - 12) =     12.94960  eV     1   --> A              
     e( 13 - 13) =     14.77496  eV     1   --> A              
     e( 14 - 14) =     16.87738  eV     1   --> A              
     e( 15 - 15) =     17.79264  eV     1   --> A              
     e( 16 - 16) =     18.51158  eV     1   --> A              
     e( 17 - 17) =     19.31087  eV     1   --> A              
     e( 18 - 18) =     21.04365  eV     1   --> A              
     e( 19 - 19) =     21.93539  eV     1   --> A              
     e( 20 - 20) =     25.10713  eV     1   --> A              
     e( 21 - 21) =     26.26283  eV     1   --> A              
     e( 22 - 22) =     27.00415  eV     1   --> A              
     e( 23 - 23) =     28.22424  eV     1   --> A              
     e( 24 - 24) =     29.00263  eV     1   --> A              
     e( 25 - 25) =     29.19682  eV     1   --> A              
     e( 26 - 26) =     30.06972  eV     1   --> A              
     e( 27 - 27) =     30.65928  eV     1   --> A              
     e( 28 - 28) =     31.24784  eV     1   --> A              
     e( 29 - 29) =     32.70314  eV     1   --> A              
     e( 30 - 30) =     33.29785  eV     1   --> A              

 **************************************************************************

 **************************************************************************

                    xk=(  -0.63158,   0.50000,   0.36842  )

     Band symmetry, C_1 (1)     point group:

     e(  1 -  1) =     -6.79020  eV     1   --> A              
     e(  2 -  2) =     -6.63086  eV     1   --> A              
     e(  3 -  3) =     -6.62505  eV     1   --> A              
     e(  4 -  4) =     -6.51412  eV     1   --> A              
     e(  5 -  5) =     -6.50824  eV     1   --> A              
     e(  6 -  6) =     -2.13118  eV     1   --> A              
     e(  7 -  7) =      1.92177  eV     1   --> A              
     e(  8 -  8) =      5.83595  eV     1   --> A              
     e(  9 -  9) =      6.41080  eV     1   --> A              
     e( 10 - 10) =      9.80505  eV     1   --> A              
     e( 11 - 11) =     12.02849  eV     1   --> A              
     e( 12 - 12) =     12.78270  eV     1   --> A              
     e( 13 - 13) =     14.80543  eV     1   --> A              
     e( 14 - 14) =     16.97978  eV     1   --> A              
     e( 15 - 15) =     17.80687  eV     1   --> A              
     e( 16 - 16) =     18.43408  eV     1   --> A              
     e( 17 - 17) =     19.30535  eV     1   --> A              
     e( 18 - 18) =     20.81689  eV     1   --> A              
     e( 19 - 19) =     21.65704  eV     1   --> A              
     e( 20 - 20) =     25.29754  eV     1   --> A              
     e( 21 - 21) =     26.48017  eV     1   --> A              
     e( 22 - 22) =     26.96937  eV     1   --> A              
     e( 23 - 23) =     28.17770  eV     1   --> A              
     e( 24 - 24) =     29.02471  eV     1   --> A              
     e( 25 - 25) =     29.28136  eV     1   --> A              
     e( 26 - 26) =     30.14548  eV     1   --> A              
     e( 27 - 27) =     30.86705  eV     1   --> A              
     e( 28 - 28) =     31.24777  eV     1   --> A              
     e( 29 - 29) =     32.84720  eV     1   --> A              
     e( 30 - 30) =     33.12896  eV     1   --> A              

 **************************************************************************

 **************************************************************************

                    xk=(  -0.60526,   0.50000,   0.39474  )

     Band symmetry, C_1 (1)     point group:

     e(  1 -  1) =     -6.78883  eV     1   --> A              
     e(  2 -  2) =     -6.63190  eV     1   --> A              
     e(  3 -  3) =     -6.62818  eV     1   --> A              
     e(  4 -  4) =     -6.51202  eV     1   --> A              
     e(  5 -  5) =     -6.50817  eV     1   --> A              
     e(  6 -  6) =     -2.16449  eV     1   --> A              
     e(  7 -  7) =      1.89896  eV     1   --> A              
     e(  8 -  8) =      6.05920  eV     1   --> A              
     e(  9 -  9) =      6.47815  eV     1   --> A              
     e( 10 - 10) =      9.58762  eV     1   --> A              
     e( 11 - 11) =     12.12592  eV     1   --> A              
     e( 12 - 12) =     12.64015  eV     1   --> A              
     e( 13 - 13) =     14.80688  eV     1   --> A              
     e( 14 - 14) =     17.00431  eV     1   --> A              
     e( 15 - 15) =     17.92020  eV     1   --> A              
     e( 16 - 16) =     18.37029  eV     1   --> A              
     e( 17 - 17) =     19.33681  eV     1   --> A              
     e( 18 - 18) =     20.61996  eV     1   --> A              
     e( 19 - 19) =     21.35501  eV     1   --> A              
     e( 20 - 20) =     25.46821  eV     1   --> A              
     e( 21 - 21) =     26.67609  eV     1   --> A              
     e( 22 - 22) =     26.95652  eV     1   --> A              
     e( 23 - 23) =     28.14409  eV     1   --> A              
     e( 24 - 24) =     28.97633  eV     1   --> A              
     e( 25 - 25) =     29.20748  eV     1   --> A              
     e( 26 - 26) =     30.45413  eV     1   --> A              
     e( 27 - 27) =     31.09213  eV     1   --> A              
     e( 28 - 28) =     31.24770  eV     1   --> A              
     e( 29 - 29) =     32.94412  eV     1   --> A              
     e( 30 - 30) =     32.98561  eV     1   --> A              

 **************************************************************************

 **************************************************************************

                    xk=(  -0.57895,   0.50000,   0.42105  )

     Band symmetry, C_1 (1)     point group:

     e(  1 -  1) =     -6.78781  eV     1   --> A              
     e(  2 -  2) =     -6.63273  eV     1   --> A              
     e(  3 -  3) =     -6.63064  eV     1   --> A              
     e(  4 -  4) =     -6.51031  eV     1   --> A              
     e(  5 -  5) =     -6.50811  eV     1   --> A              
     e(  6 -  6) =     -2.19086  eV     1   --> A              
     e(  7 -  7) =      1.88021  eV     1   --> A              
     e(  8 -  8) =      6.26552  eV     1   --> A              
     e(  9 -  9) =      6.53070  eV     1   --> A              
     e( 10 - 10) =      9.38464  eV     1   --> A              
     e( 11 - 11) =     12.22165  eV     1   --> A              
     e( 12 - 12) =     12.52726  eV     1   --> A              
     e( 13 - 13) =     14.77899  eV     1   --> A              
     e( 14 - 14) =     17.01007  eV     1   --> A              
     e( 15 - 15) =     18.05625  eV     1   --> A              
     e( 16 - 16) =     18.31784  eV     1   --> A              
     e( 17 - 17) =     19.42048  eV     1   --> A              
     e( 18 - 18) =     20.45965  eV     1   --> A              
     e( 19 - 19) =     21.04028  eV     1   --> A              
     e( 20 - 20) =     25.60799  eV     1   --> A              
     e( 21 - 21) =     26.83858  eV     1   --> A              
     e( 22 - 22) =     26.96900  eV     1   --> A              
     e( 23 - 23) =     28.13608  eV     1   --> A              
     e( 24 - 24) =     28.90524  eV     1   --> A              
     e( 25 - 25) =     29.05430  eV     1   --> A              
     e( 26 - 26) =     30.86116  eV     1   --> A              
     e( 27 - 27) =     31.24741  eV     1   --> A              
     e( 28 - 28) =     31.31649  eV     1   --> A              
     e( 29 - 29) =     32.81351  eV     1   --> A              
     e( 30 - 30) =     33.04843  eV     1   --> A              

 **************************************************************************

 **************************************************************************

                    xk=(  -0.55263,   0.50000,   0.44737  )

     Band symmetry, C_1 (1)     point group:

     e(  1 -  1) =     -6.78709  eV     1   --> A              
     e(  2 -  2) =     -6.63333  eV     1   --> A              
     e(  3 -  3) =     -6.63241  eV     1   --> A              
     e(  4 -  4) =     -6.50905  eV     1   --> A              
     e(  5 -  5) =     -6.50806  eV     1   --> A              
     e(  6 -  6) =     -2.20994  eV     1   --> A              
     e(  7 -  7) =      1.86630  eV     1   --> A              
     e(  8 -  8) =      6.43821  eV     1   --> A              
     e(  9 -  9) =      6.56829  eV     1   --> A              
     e( 10 - 10) =      9.21348  eV     1   --> A              
     e( 11 - 11) =     12.30430  eV     1   --> A              
     e( 12 - 12) =     12.44631  eV     1   --> A              
     e( 13 - 13) =     14.73539  eV     1   --> A              
     e( 14 - 14) =     17.02374  eV     1   --> A              
     e( 15 - 15) =     18.16142  eV     1   --> A              
     e( 16 - 16) =     18.27650  eV     1   --> A              
     e( 17 - 17) =     19.56779  eV     1   --> A              
     e( 18 - 18) =     20.34165  eV     1   --> A              
     e( 19 - 19) =     20.72438  eV     1   --> A              
     e( 20 - 20) =     25.70918  eV     1   --> A              
     e( 21 - 21) =     26.95828  eV     1   --> A              
     e( 22 - 22) =     27.00161  eV     1   --> A              
     e( 23 - 23) =     28.15470  eV     1   --> A              
     e( 24 - 24) =     28.82864  eV     1   --> A              
     e( 25 - 25) =     28.89950  eV     1   --> A              
     e( 26 - 26) =     31.24742  eV     1   --> A              
     e( 27 - 27) =     31.26593  eV     1   --> A              
     e( 28 - 28) =     31.51710  eV     1   --> A              
     e( 29 - 29) =     32.69822  eV     1   --> A              
     e( 30 - 30) =     33.07908  eV     1   --> A              

 **************************************************************************

 **************************************************************************

                    xk=(  -0.52632,   0.50000,   0.47368  )

     Band symmetry, C_1 (1)     point group:

     e(  1 -  1) =     -6.78669  eV     1   --> A              
     e(  2 -  2) =     -6.63371  eV     1   --> A              
     e(  3 -  3) =     -6.63348  eV     1   --> A              
     e(  4 -  4) =     -6.50828  eV     1   --> A              
     e(  5 -  5) =     -6.50803  eV     1   --> A              
     e(  6 -  6) =     -2.22149  eV     1   --> A              
     e(  7 -  7) =      1.85776  eV     1   --> A              
     e(  8 -  8) =      6.55604  eV     1   --> A              
     e(  9 -  9) =      6.59084  eV     1   --> A              
     e( 10 - 10) =      9.09610  eV     1   --> A              
     e( 11 - 11) =     12.36113  eV     1   --> A              
     e( 12 - 12) =     12.39769  eV     1   --> A              
     e( 13 - 13) =     14.69686  eV     1   --> A              
     e( 14 - 14) =     17.04079  eV     1   --> A              
     e( 15 - 15) =     18.22053  eV     1   --> A              
     e( 16 - 16) =     18.24865  eV     1   --> A              
     e( 17 - 17) =     19.76762  eV     1   --> A              
     e( 18 - 18) =     20.26964  eV     1   --> A              
     e( 19 - 19) =     20.42653  eV     1   --> A              
     e( 20 - 20) =     25.76880  eV     1   --> A              
     e( 21 - 21) =     27.02957  eV     1   --> A              
     e( 22 - 22) =     27.03701  eV     1   --> A              
     e( 23 - 23) =     28.18636  eV     1   --> A              
     e( 24 - 24) =     28.76559  eV     1   --> A              
     e( 25 - 25) =     28.78404  eV     1   --> A              
     e( 26 - 26) =     31.24731  eV     1   --> A              
     e( 27 - 27) =     31.58782  eV     1   --> A              
     e( 28 - 28) =     31.66338  eV     1   --> A              
     e( 29 - 29) =     32.62106  eV     1   --> A              
     e( 30 - 30) =     33.08462  eV     1   --> A              

 **************************************************************************

 **************************************************************************

                    xk=(  -0.50000,   0.50000,   0.50000  )

     point group C_3v (3m)  
     there are  3 classes
     the character table:

       E     2C3   3s_v 
A_1    1.00  1.00  1.00
A_2    1.00  1.00 -1.00
E      2.00 -1.00  0.00

     the symmetry operations in each class and the name of the first element:

     E        1
                                                                 
     2C3      2    3
                                                                 
     3s_v     4    5    6
                                                                 

     Band symmetry, C_3v (3m)   point group:

     e(  1 -  1) =     -6.78655  eV     1   --> A_1  L_1       
     e(  2 -  3) =     -6.63383  eV     2   --> E    L_3       
     e(  4 -  5) =     -6.50802  eV     2   --> E    L_3       
     e(  6 -  6) =     -2.22535  eV     1   --> A_1  L_1       
     e(  7 -  7) =      1.85487  eV     1   --> A_1  L_1       
     e(  8 -  9) =      6.59836  eV     2   --> E    L_3       
     e( 10 - 10) =      9.05385  eV     1   --> A_1  L_1       
     e( 11 - 12) =     12.38152  eV     2   --> E    L_3       
     e( 13 - 13) =     14.68162  eV     1   --> A_1  L_1       
     e( 14 - 14) =     17.04846  eV     1   --> A_1  L_1       
     e( 15 - 16) =     18.23872  eV     2   --> E    L_3       
     e( 17 - 17) =     19.91717  eV     1   --> A_1  L_1       
     e( 18 - 19) =     20.24550  eV     2   --> E    L_3       
     e( 20 - 20) =     25.78830  eV     1   --> A_1  L_1       
     e( 21 - 22) =     27.05276  eV     2   --> E    L_3       
     e( 23 - 23) =     28.20309  eV     1   --> A_1  L_1       
     e( 24 - 25) =     28.74029  eV     2   --> E    L_3       
     e( 26 - 26) =     31.24730  eV     1   --> A_1  L_1       
     e( 27 - 28) =     31.71864  eV     2   --> E    L_3       
     e( 29 - 29) =     32.59325  eV     1   --> A_1  L_1       
     e( 30 - 30) =     33.08578  eV     1   --> A_1  L_1       

 **************************************************************************

 **************************************************************************

                    xk=(  -0.50000,   0.50000,   0.50000  )

     Band symmetry, C_3v (3m)   point group:

     e(  1 -  1) =     -6.78655  eV     1   --> A_1  L_1       
     e(  2 -  3) =     -6.63383  eV     2   --> E    L_3       
     e(  4 -  5) =     -6.50802  eV     2   --> E    L_3       
     e(  6 -  6) =     -2.22535  eV     1   --> A_1  L_1       
     e(  7 -  7) =      1.85487  eV     1   --> A_1  L_1       
     e(  8 -  9) =      6.59836  eV     2   --> E    L_3       
     e( 10 - 10) =      9.05385  eV     1   --> A_1  L_1       
     e( 11 - 12) =     12.38152  eV     2   --> E    L_3       
     e( 13 - 13) =     14.68162  eV     1   --> A_1  L_1       
     e( 14 - 14) =     17.04846  eV     1   --> A_1  L_1       
     e( 15 - 16) =     18.23872  eV     2   --> E    L_3       
     e( 17 - 17) =     19.91717  eV     1   --> A_1  L_1       
     e( 18 - 19) =     20.24550  eV     2   --> E    L_3       
     e( 20 - 20) =     25.78830  eV     1   --> A_1  L_1       
     e( 21 - 22) =     27.05276  eV     2   --> E    L_3       
     e( 23 - 23) =     28.20309  eV     1   --> A_1  L_1       
     e( 24 - 25) =     28.74029  eV     2   --> E    L_3       
     e( 26 - 26) =     31.24730  eV     1   --> A_1  L_1       
     e( 27 - 28) =     31.71864  eV     2   --> E    L_3       
     e( 29 - 29) =     32.59325  eV     1   --> A_1  L_1       
     e( 30 - 30) =     33.08578  eV     1   --> A_1  L_1       

 **************************************************************************

 **************************************************************************

                    xk=(  -0.47368,   0.47368,   0.47368  )

     Band symmetry, C_3v (3m)   point group:

     e(  1 -  1) =     -6.78585  eV     1   --> A_1  L_1       
     e(  2 -  3) =     -6.63398  eV     2   --> E    L_3       
     e(  4 -  5) =     -6.50822  eV     2   --> E    L_3       
     e(  6 -  6) =     -2.24513  eV     1   --> A_1  L_1       
     e(  7 -  7) =      1.88886  eV     1   --> A_1  L_1       
     e(  8 -  9) =      6.60337  eV     2   --> E    L_3       
     e( 10 - 10) =      9.05804  eV     1   --> A_1  L_1       
     e( 11 - 12) =     12.38441  eV     2   --> E    L_3       
     e( 13 - 13) =     14.66599  eV     1   --> A_1  L_1       
     e( 14 - 14) =     16.99823  eV     1   --> A_1  L_1       
     e( 15 - 16) =     18.14637  eV     2   --> E    L_3       
     e( 17 - 17) =     20.00162  eV     1   --> A_1  L_1       
     e( 18 - 19) =     20.35916  eV     2   --> E    L_3       
     e( 20 - 20) =     25.58943  eV     1   --> A_1  L_1       
     e( 21 - 22) =     26.85263  eV     2   --> E    L_3       
     e( 23 - 23) =     28.37561  eV     1   --> A_1  L_1       
     e( 24 - 25) =     28.93528  eV     2   --> E    L_3       
     e( 26 - 26) =     31.24694  eV     1   --> A_1  L_1       
     e( 27 - 28) =     31.72861  eV     2   --> E    L_3       
     e( 29 - 29) =     32.07320  eV     1   --> A_1  L_1       
     e( 30 - 30) =     33.51273  eV     1   --> A_2  L_2       

 **************************************************************************

 **************************************************************************

                    xk=(  -0.44737,   0.44737,   0.44737  )

     Band symmetry, C_3v (3m)   point group:

     e(  1 -  1) =     -6.78371  eV     1   --> A_1  L_1       
     e(  2 -  3) =     -6.63445  eV     2   --> E    L_3       
     e(  4 -  5) =     -6.50882  eV     2   --> E    L_3       
     e(  6 -  6) =     -2.30231  eV     1   --> A_1  L_1       
     e(  7 -  7) =      1.98863  eV     1   --> A_1  L_1       
     e(  8 -  9) =      6.61835  eV     2   --> E    L_3       
     e( 10 - 10) =      9.07059  eV     1   --> A_1  L_1       
     e( 11 - 12) =     12.39262  eV     2   --> E    L_3       
     e( 13 - 13) =     14.61605  eV     1   --> A_1  L_1       
     e( 14 - 14) =     16.87141  eV     1   --> A_1  L_1       
     e( 15 - 16) =     17.91673  eV     2   --> E    L_3       
     e( 17 - 17) =     20.23309  eV     1   --> A_1  L_1       
     e( 18 - 19) =     20.65289  eV     2   --> E    L_3       
     e( 20 - 20) =     25.11941  eV     1   --> A_1  L_1       
     e( 21 - 22) =     26.40828  eV     2   --> E    L_3       
     e( 23 - 23) =     28.73848  eV     1   --> A_1  L_1       
     e( 24 - 25) =     29.35912  eV     2   --> E    L_3       
     e( 26 - 26) =     31.24326  eV     1   --> A_1  L_1       
     e( 27 - 27) =     31.45578  eV     1   --> A_1  L_1       
     e( 28 - 29) =     31.76235  eV     2   --> E    L_3       
     e( 30 - 30) =     33.47602  eV     1   --> A_2  L_2       

 **************************************************************************

 **************************************************************************

                    xk=(  -0.42105,   0.42105,   0.42105  )

     Band symmetry, C_3v (3m)   point group:

     e(  1 -  1) =     -6.78024  eV     1   --> A_1  L_1       
     e(  2 -  3) =     -6.63523  eV     2   --> E    L_3       
     e(  4 -  5) =     -6.50976  eV     2   --> E    L_3       
     e(  6 -  6) =     -2.39119  eV     1   --> A_1  L_1       
     e(  7 -  7) =      2.14826  eV     1   --> A_1  L_1       
     e(  8 -  9) =      6.64316  eV     2   --> E    L_3       
     e( 10 - 10) =      9.09117  eV     1   --> A_1  L_1       
     e( 11 - 12) =     12.40503  eV     2   --> E    L_3       
     e( 13 - 13) =     14.52350  eV     1   --> A_1  L_1       
     e( 14 - 14) =     16.71825  eV     1   --> A_1  L_1       
     e( 15 - 16) =     17.62558  eV     2   --> E    L_3       
     e( 17 - 17) =     20.56255  eV     1   --> A_1  L_1       
     e( 18 - 19) =     21.05136  eV     2   --> E    L_3       
     e( 20 - 20) =     24.54275  eV     1   --> A_1  L_1       
     e( 21 - 22) =     25.88265  eV     2   --> E    L_3       
     e( 23 - 23) =     28.99466  eV     1   --> A_1  L_1       
     e( 24 - 25) =     29.83327  eV     2   --> E    L_3       
     e( 26 - 26) =     31.04412  eV     1   --> A_1  L_1       
     e( 27 - 27) =     31.25436  eV     1   --> A_1  L_1       
     e( 28 - 29) =     31.83285  eV     2   --> E    L_3       
     e( 30 - 30) =     33.41772  eV     1   --> A_2  L_2       

 **************************************************************************

 **************************************************************************

                    xk=(  -0.39474,   0.39474,   0.39474  )

     Band symmetry, C_3v (3m)   point group:

     e(  1 -  1) =     -6.77540  eV     1   --> A_1  L_1       
     e(  2 -  3) =     -6.63636  eV     2   --> E    L_3       
     e(  4 -  5) =     -6.51094  eV     2   --> E    L_3       
     e(  6 -  6) =     -2.50423  eV     1   --> A_1  L_1       
     e(  7 -  7) =      2.35993  eV     1   --> A_1  L_1       
     e(  8 -  9) =      6.67746  eV     2   --> E    L_3       
     e( 10 - 10) =      9.11947  eV     1   --> A_1  L_1       
     e( 11 - 12) =     12.41931  eV     2   --> E    L_3       
     e( 13 - 13) =     14.37971  eV     1   --> A_1  L_1       
     e( 14 - 14) =     16.58517  eV     1   --> A_1  L_1       
     e( 15 - 16) =     17.32059  eV     2   --> E    L_3       
     e( 17 - 17) =     20.93645  eV     1   --> A_1  L_1       
     e( 18 - 19) =     21.50755  eV     2   --> E    L_3       
     e( 20 - 20) =     23.95297  eV     1   --> A_1  L_1       
     e( 21 - 22) =     25.33576  eV     2   --> E    L_3       
     e( 23 - 23) =     28.84843  eV     1   --> A_1  L_1       
     e( 24 - 25) =     30.26593  eV     2   --> E    L_3       
     e( 26 - 26) =     31.09186  eV     1   --> A_1  L_1       
     e( 27 - 27) =     31.25909  eV     1   --> A_1  L_1       
     e( 28 - 29) =     31.96150  eV     2   --> E    L_3       
     e( 30 - 30) =     33.34155  eV     1   --> A_2  L_2       

 **************************************************************************

 **************************************************************************

                    xk=(  -0.36842,   0.36842,   0.36842  )

     Band symmetry, C_3v (3m)   point group:

     e(  1 -  1) =     -6.76934  eV     1   --> A_1  L_1       
     e(  2 -  3) =     -6.63787  eV     2   --> E    L_3       
     e(  4 -  5) =     -6.51234  eV     2   --> E    L_3       
     e(  6 -  6) =     -2.63364  eV     1   --> A_1  L_1       
     e(  7 -  7) =      2.61539  eV     1   --> A_1  L_1       
     e(  8 -  9) =      6.72081  eV     2   --> E    L_3       
     e( 10 - 10) =      9.15469  eV     1   --> A_1  L_1       
     e( 11 - 12) =     12.43240  eV     2   --> E    L_3       
     e( 13 - 13) =     14.18107  eV     1   --> A_1  L_1       
     e( 14 - 14) =     16.49992  eV     1   --> A_1  L_1       
     e( 15 - 16) =     17.02618  eV     2   --> E    L_3       
     e( 17 - 17) =     21.27963  eV     1   --> A_1  L_1       
     e( 18 - 19) =     21.99251  eV     2   --> E    L_3       
     e( 20 - 20) =     23.43098  eV     1   --> A_1  L_1       
     e( 21 - 22) =     24.79380  eV     2   --> E    L_3       
     e( 23 - 23) =     28.36165  eV     1   --> A_1  L_1       
     e( 24 - 25) =     30.59558  eV     2   --> E    L_3       
     e( 26 - 26) =     31.24055  eV     1   --> A_1  L_1       
     e( 27 - 27) =     31.51766  eV     1   --> A_1  L_1       
     e( 28 - 29) =     32.16192  eV     2   --> E    L_3       
     e( 30 - 30) =     33.25183  eV     1   --> A_2  L_2       

 **************************************************************************

 **************************************************************************

                    xk=(  -0.34210,   0.34210,   0.34210  )

     Band symmetry, C_3v (3m)   point group:

     e(  1 -  1) =     -6.76227  eV     1   --> A_1  L_1       
     e(  2 -  3) =     -6.63977  eV     2   --> E    L_3       
     e(  4 -  5) =     -6.51381  eV     2   --> E    L_3       
     e(  6 -  6) =     -2.77248  eV     1   --> A_1  L_1       
     e(  7 -  7) =      2.90703  eV     1   --> A_1  L_1       
     e(  8 -  9) =      6.77268  eV     2   --> E    L_3       
     e( 10 - 10) =      9.19554  eV     1   --> A_1  L_1       
     e( 11 - 12) =     12.44047  eV     2   --> E    L_3       
     e( 13 - 13) =     13.93392  eV     1   --> A_1  L_1       
     e( 14 - 14) =     16.47136  eV     1   --> A_1  L_1       
     e( 15 - 16) =     16.75794  eV     2   --> E    L_3       
     e( 17 - 17) =     21.43016  eV     1   --> A_1  L_1       
     e( 18 - 19) =     22.47567  eV     2   --> E    L_3       
     e( 20 - 20) =     23.13604  eV     1   --> A_1  L_1       
     e( 21 - 22) =     24.28627  eV     2   --> E    L_3       
     e( 23 - 23) =     27.75303  eV     1   --> A_1  L_1       
     e( 24 - 25) =     30.80181  eV     2   --> E    L_3       
     e( 26 - 26) =     31.24517  eV     1   --> A_1  L_1       
     e( 27 - 27) =     32.02568  eV     1   --> A_1  L_1       
     e( 28 - 29) =     32.38851  eV     2   --> E    L_3       
     e( 30 - 30) =     33.15293  eV     1   --> A_2  L_2       

 **************************************************************************

 **************************************************************************

                    xk=(  -0.31579,   0.31579,   0.31579  )

     Band symmetry, C_3v (3m)   point group:

     e(  1 -  1) =     -6.75431  eV     1   --> A_1  L_1       
     e(  2 -  3) =     -6.64206  eV     2   --> E    L_3       
     e(  4 -  5) =     -6.51528  eV     2   --> E    L_3       
     e(  6 -  6) =     -2.91498  eV     1   --> A_1  L_1       
     e(  7 -  7) =      3.22835  eV     1   --> A_1  L_1       
     e(  8 -  9) =      6.83232  eV     2   --> E    L_3       
     e( 10 - 10) =      9.24037  eV     1   --> A_1  L_1       
     e( 11 - 12) =     12.43889  eV     2   --> E    L_3       
     e( 13 - 13) =     13.65171  eV     1   --> A_1  L_1       
     e( 14 - 14) =     16.49541  eV     1   --> A_1  L_1       
     e( 15 - 16) =     16.52656  eV     2   --> E    L_3       
     e( 17 - 17) =     21.20977  eV     1   --> A_1  L_1       
     e( 18 - 19) =     22.85465  eV     2   --> E    L_3       
     e( 20 - 20) =     23.24494  eV     1   --> A_1  L_1       
     e( 21 - 22) =     23.91370  eV     2   --> E    L_3       
     e( 23 - 23) =     27.11743  eV     1   --> A_1  L_1       
     e( 24 - 25) =     30.91245  eV     2   --> E    L_3       
     e( 26 - 26) =     31.24615  eV     1   --> A_1  L_1       
     e( 27 - 27) =     32.52011  eV     1   --> A_1  L_1       
     e( 28 - 29) =     32.53274  eV     2   --> E    L_3       
     e( 30 - 30) =     33.04892  eV     1   --> A_2  L_2       

 **************************************************************************

 **************************************************************************

                    xk=(  -0.28947,   0.28947,   0.28947  )

     Band symmetry, C_3v (3m)   point group:

     e(  1 -  1) =     -6.74563  eV     1   --> A_1  L_1       
     e(  2 -  3) =     -6.64471  eV     2   --> E    L_3       
     e(  4 -  5) =     -6.51662  eV     2   --> E    L_3       
     e(  6 -  6) =     -3.05655  eV     1   --> A_1  L_1       
     e(  7 -  7) =      3.57382  eV     1   --> A_1  L_1       
     e(  8 -  9) =      6.89884  eV     2   --> E    L_3       
     e( 10 - 10) =      9.28663  eV     1   --> A_1  L_1       
     e( 11 - 12) =     12.42298  eV     2   --> E    L_3       
     e( 13 - 13) =     13.34983  eV     1   --> A_1  L_1       
     e( 14 - 15) =     16.34077  eV     2   --> E    L_3       
     e( 16 - 16) =     16.56270  eV     1   --> A_1  L_1       
     e( 17 - 17) =     20.74387  eV     1   --> A_1  L_1       
     e( 18 - 19) =     22.79812  eV     2   --> E    L_3       
     e( 20 - 20) =     23.62762  eV     1   --> A_1  L_1       
     e( 21 - 22) =     24.00684  eV     2   --> E    L_3       
     e( 23 - 23) =     26.49247  eV     1   --> A_1  L_1       
     e( 24 - 25) =     30.96650  eV     2   --> E    L_3       
     e( 26 - 26) =     31.24680  eV     1   --> A_1  L_1       
     e( 27 - 28) =     32.55423  eV     2   --> E    L_3       
     e( 29 - 29) =     32.93332  eV     1   --> A_1  L_1       
     e( 30 - 30) =     32.94342  eV     1   --> A_2  L_2       

 **************************************************************************

 **************************************************************************

                    xk=(  -0.26316,   0.26316,   0.26316  )

     Band symmetry, C_3v (3m)   point group:

     e(  1 -  1) =     -6.73651  eV     1   --> A_1  L_1       
     e(  2 -  3) =     -6.64769  eV     2   --> E    L_3       
     e(  4 -  5) =     -6.51784  eV     2   --> E    L_3       
     e(  6 -  6) =     -3.19365  eV     1   --> A_1  L_1       
     e(  7 -  7) =      3.93871  eV     1   --> A_1  L_1       
     e(  8 -  9) =      6.97106  eV     2   --> E    L_3       
     e( 10 - 10) =      9.33039  eV     1   --> A_1  L_1       
     e( 11 - 12) =     12.38874  eV     2   --> E    L_3       
     e( 13 - 13) =     13.04213  eV     1   --> A_1  L_1       
     e( 14 - 15) =     16.20636  eV     2   --> E    L_3       
     e( 16 - 16) =     16.66273  eV     1   --> A_1  L_1       
     e( 17 - 17) =     20.20436  eV     1   --> A_1  L_1       
     e( 18 - 19) =     22.39486  eV     2   --> E    L_3       
     e( 20 - 20) =     24.09204  eV     1   --> A_1  L_1       
     e( 21 - 22) =     24.47437  eV     2   --> E    L_3       
     e( 23 - 23) =     25.91193  eV     1   --> A_1  L_1       
     e( 24 - 25) =     30.98995  eV     2   --> E    L_3       
     e( 26 - 26) =     31.24680  eV     1   --> A_1  L_1       
     e( 27 - 28) =     32.50032  eV     2   --> E    L_3       
     e( 29 - 29) =     32.83948  eV     1   --> A_2  L_2       
     e( 30 - 30) =     33.22356  eV     1   --> A_1  L_1       

 **************************************************************************

 **************************************************************************

                    xk=(  -0.23684,   0.23684,   0.23684  )

     Band symmetry, C_3v (3m)   point group:

     e(  1 -  1) =     -6.72711  eV     1   --> A_1  L_1       
     e(  2 -  3) =     -6.65093  eV     2   --> E    L_3       
     e(  4 -  5) =     -6.51885  eV     2   --> E    L_3       
     e(  6 -  6) =     -3.32351  eV     1   --> A_1  L_1       
     e(  7 -  7) =      4.31891  eV     1   --> A_1  L_1       
     e(  8 -  9) =      7.04762  eV     2   --> E    L_3       
     e( 10 - 10) =      9.36610  eV     1   --> A_1  L_1       
     e( 11 - 12) =     12.33414  eV     2   --> E    L_3       
     e( 13 - 13) =     12.74153  eV     1   --> A_1  L_1       
     e( 14 - 15) =     16.12795  eV     2   --> E    L_3       
     e( 16 - 16) =     16.78439  eV     1   --> A_1  L_1       
     e( 17 - 17) =     19.66217  eV     1   --> A_1  L_1       
     e( 18 - 19) =     21.92436  eV     2   --> E    L_3       
     e( 20 - 20) =     24.46152  eV     1   --> A_1  L_1       
     e( 21 - 22) =     25.03686  eV     2   --> E    L_3       
     e( 23 - 23) =     25.49443  eV     1   --> A_1  L_1       
     e( 24 - 25) =     30.99683  eV     2   --> E    L_3       
     e( 26 - 26) =     31.24679  eV     1   --> A_1  L_1       
     e( 27 - 28) =     32.41517  eV     2   --> E    L_3       
     e( 29 - 29) =     32.73963  eV     1   --> A_2  L_2       
     e( 30 - 30) =     33.37870  eV     1   --> A_1  L_1       

 **************************************************************************

 **************************************************************************

                    xk=(  -0.21053,   0.21053,   0.21053  )

     Band symmetry, C_3v (3m)   point group:

     e(  1 -  1) =     -6.71769  eV     1   --> A_1  L_1       
     e(  2 -  3) =     -6.65432  eV     2   --> E    L_3       
     e(  4 -  5) =     -6.51960  eV     2   --> E    L_3       
     e(  6 -  6) =     -3.44400  eV     1   --> A_1  L_1       
     e(  7 -  7) =      4.71068  eV     1   --> A_1  L_1       
     e(  8 -  9) =      7.12687  eV     2   --> E    L_3       
     e( 10 - 10) =      9.38586  eV     1   --> A_1  L_1       
     e( 11 - 12) =     12.25992  eV     2   --> E    L_3       
     e( 13 - 13) =     12.46000  eV     1   --> A_1  L_1       
     e( 14 - 15) =     16.10639  eV     2   --> E    L_3       
     e( 16 - 16) =     16.91277  eV     1   --> A_1  L_1       
     e( 17 - 17) =     19.15277  eV     1   --> A_1  L_1       
     e( 18 - 19) =     21.44908  eV     2   --> E    L_3       
     e( 20 - 20) =     24.33861  eV     1   --> A_1  L_1       
     e( 21 - 21) =     25.61763  eV     1   --> A_1  L_1       
     e( 22 - 23) =     25.63100  eV     2   --> E    L_3       
     e( 24 - 25) =     30.99640  eV     2   --> E    L_3       
     e( 26 - 26) =     31.24697  eV     1   --> A_1  L_1       
     e( 27 - 28) =     32.32104  eV     2   --> E    L_3       
     e( 29 - 29) =     32.64595  eV     1   --> A_2  L_2       
     e( 30 - 30) =     33.40916  eV     1   --> A_1  L_1       

 **************************************************************************

 **************************************************************************

                    xk=(  -0.18421,   0.18421,   0.18421  )

     Band symmetry, C_3v (3m)   point group:

     e(  1 -  1) =     -6.70852  eV     1   --> A_1  L_1       
     e(  2 -  3) =     -6.65772  eV     2   --> E    L_3       
     e(  4 -  5) =     -6.52015  eV     2   --> E    L_3       
     e(  6 -  6) =     -3.55344  eV     1   --> A_1  L_1       
     e(  7 -  7) =      5.11037  eV     1   --> A_1  L_1       
     e(  8 -  9) =      7.20678  eV     2   --> E    L_3       
     e( 10 - 10) =      9.37896  eV     1   --> A_1  L_1       
     e( 11 - 12) =     12.16991  eV     2   --> E    L_3       
     e( 13 - 13) =     12.20958  eV     1   --> A_1  L_1       
     e( 14 - 15) =     16.13860  eV     2   --> E    L_3       
     e( 16 - 16) =     17.02107  eV     1   --> A_1  L_1       
     e( 17 - 17) =     18.71227  eV     1   --> A_1  L_1       
     e( 18 - 19) =     20.98472  eV     2   --> E    L_3       
     e( 20 - 20) =     23.88444  eV     1   --> A_1  L_1       
     e( 21 - 21) =     26.11075  eV     1   --> A_1  L_1       
     e( 22 - 23) =     26.23791  eV     2   --> E    L_3       
     e( 24 - 25) =     30.99662  eV     2   --> E    L_3       
     e( 26 - 26) =     31.24710  eV     1   --> A_1  L_1       
     e( 27 - 28) =     32.22916  eV     2   --> E    L_3       
     e( 29 - 29) =     32.56014  eV     1   --> A_2  L_2       
     e( 30 - 30) =     33.33388  eV     1   --> A_1  L_1       

 **************************************************************************

 **************************************************************************

                    xk=(  -0.15790,   0.15790,   0.15790  )

     Band symmetry, C_3v (3m)   point group:

     e(  1 -  1) =     -6.69988  eV     1   --> A_1  L_1       
     e(  2 -  3) =     -6.66104  eV     2   --> E    L_3       
     e(  4 -  5) =     -6.52052  eV     2   --> E    L_3       
     e(  6 -  6) =     -3.65054  eV     1   --> A_1  L_1       
     e(  7 -  7) =      5.51438  eV     1   --> A_1  L_1       
     e(  8 -  9) =      7.28503  eV     2   --> E    L_3       
     e( 10 - 10) =      9.33287  eV     1   --> A_1  L_1       
     e( 11 - 11) =     12.00228  eV     1   --> A_1  L_1       
     e( 12 - 13) =     12.07012  eV     2   --> E    L_3       
     e( 14 - 15) =     16.21907  eV     2   --> E    L_3       
     e( 16 - 16) =     17.05606  eV     1   --> A_1  L_1       
     e( 17 - 17) =     18.39972  eV     1   --> A_1  L_1       
     e( 18 - 19) =     20.53842  eV     2   --> E    L_3       
     e( 20 - 20) =     23.38829  eV     1   --> A_1  L_1       
     e( 21 - 21) =     26.67820  eV     1   --> A_1  L_1       
     e( 22 - 23) =     26.84722  eV     2   --> E    L_3       
     e( 24 - 25) =     31.00346  eV     2   --> E    L_3       
     e( 26 - 26) =     31.24713  eV     1   --> A_1  L_1       
     e( 27 - 28) =     32.14520  eV     2   --> E    L_3       
     e( 29 - 29) =     32.48351  eV     1   --> A_2  L_2       
     e( 30 - 30) =     33.17275  eV     1   --> A_1  L_1       

 **************************************************************************

 **************************************************************************

                    xk=(  -0.13158,   0.13158,   0.13158  )

     Band symmetry, C_3v (3m)   point group:

     e(  1 -  1) =     -6.69202  eV     1   --> A_1  L_1       
     e(  2 -  3) =     -6.66413  eV     2   --> E    L_3       
     e(  4 -  5) =     -6.52074  eV     2   --> E    L_3       
     e(  6 -  6) =     -3.73427  eV     1   --> A_1  L_1       
     e(  7 -  7) =      5.91884  eV     1   --> A_1  L_1       
     e(  8 -  9) =      7.35891  eV     2   --> E    L_3       
     e( 10 - 10) =      9.23631  eV     1   --> A_1  L_1       
     e( 11 - 11) =     11.84724  eV     1   --> A_1  L_1       
     e( 12 - 13) =     11.96789  eV     2   --> E    L_3       
     e( 14 - 15) =     16.33986  eV     2   --> E    L_3       
     e( 16 - 16) =     16.95474  eV     1   --> A_1  L_1       
     e( 17 - 17) =     18.28229  eV     1   --> A_1  L_1       
     e( 18 - 19) =     20.11571  eV     2   --> E    L_3       
     e( 20 - 20) =     22.90926  eV     1   --> A_1  L_1       
     e( 21 - 21) =     27.25837  eV     1   --> A_1  L_1       
     e( 22 - 23) =     27.44755  eV     2   --> E    L_3       
     e( 24 - 25) =     31.02487  eV     2   --> E    L_3       
     e( 26 - 26) =     31.24704  eV     1   --> A_1  L_1       
     e( 27 - 28) =     32.07242  eV     2   --> E    L_3       
     e( 29 - 29) =     32.41712  eV     1   --> A_2  L_2       
     e( 30 - 30) =     32.94289  eV     1   --> A_1  L_1       

 **************************************************************************

 **************************************************************************

                    xk=(  -0.10526,   0.10526,   0.10526  )

     Band symmetry, C_3v (3m)   point group:

     e(  1 -  1) =     -6.68522  eV     1   --> A_1  L_1       
     e(  2 -  3) =     -6.66687  eV     2   --> E    L_3       
     e(  4 -  5) =     -6.52086  eV     2   --> E    L_3       
     e(  6 -  6) =     -3.80380  eV     1   --> A_1  L_1       
     e(  7 -  7) =      6.31926  eV     1   --> A_1  L_1       
     e(  8 -  9) =      7.42544  eV     2   --> E    L_3       
     e( 10 - 10) =      9.08362  eV     1   --> A_1  L_1       
     e( 11 - 11) =     11.74650  eV     1   --> A_1  L_1       
     e( 12 - 13) =     11.87108  eV     2   --> E    L_3       
     e( 14 - 15) =     16.49072  eV     2   --> E    L_3       
     e( 16 - 16) =     16.74064  eV     1   --> A_1  L_1       
     e( 17 - 17) =     18.33876  eV     1   --> A_1  L_1       
     e( 18 - 19) =     19.72350  eV     2   --> E    L_3       
     e( 20 - 20) =     22.46704  eV     1   --> A_1  L_1       
     e( 21 - 21) =     27.82707  eV     1   --> A_1  L_1       
     e( 22 - 23) =     28.02138  eV     2   --> E    L_3       
     e( 24 - 25) =     31.07293  eV     2   --> E    L_3       
     e( 26 - 26) =     31.24675  eV     1   --> A_1  L_1       
     e( 27 - 28) =     32.01344  eV     2   --> E    L_3       
     e( 29 - 29) =     32.36180  eV     1   --> A_2  L_2       
     e( 30 - 30) =     32.65977  eV     1   --> A_1  L_1       

 **************************************************************************

 **************************************************************************

                    xk=(  -0.07895,   0.07895,   0.07895  )

     Band symmetry, C_3v (3m)   point group:

     e(  1 -  1) =     -6.67968  eV     1   --> A_1  L_1       
     e(  2 -  3) =     -6.66911  eV     2   --> E    L_3       
     e(  4 -  5) =     -6.52089  eV     2   --> E    L_3       
     e(  6 -  6) =     -3.85851  eV     1   --> A_1  L_1       
     e(  7 -  7) =      6.70965  eV     1   --> A_1  L_1       
     e(  8 -  9) =      7.48160  eV     2   --> E    L_3       
     e( 10 - 10) =      8.87843  eV     1   --> A_1  L_1       
     e( 11 - 11) =     11.69268  eV     1   --> A_1  L_1       
     e( 12 - 13) =     11.78711  eV     2   --> E    L_3       
     e( 14 - 14) =     16.50268  eV     1   --> A_1  L_1       
     e( 15 - 16) =     16.65822  eV     2   --> E    L_3       
     e( 17 - 17) =     18.47913  eV     1   --> A_1  L_1       
     e( 18 - 19) =     19.37222  eV     2   --> E    L_3       
     e( 20 - 20) =     22.07787  eV     1   --> A_1  L_1       
     e( 21 - 21) =     28.36450  eV     1   --> A_1  L_1       
     e( 22 - 23) =     28.54112  eV     2   --> E    L_3       
     e( 24 - 25) =     31.16915  eV     2   --> E    L_3       
     e( 26 - 26) =     31.24664  eV     1   --> A_1  L_1       
     e( 27 - 28) =     31.97232  eV     2   --> E    L_3       
     e( 29 - 29) =     32.31817  eV     1   --> A_2  L_2       
     e( 30 - 30) =     32.34259  eV     1   --> A_1  L_1       

 **************************************************************************

 **************************************************************************

                    xk=(  -0.05263,   0.05263,   0.05263  )

     Band symmetry, C_3v (3m)   point group:

     e(  1 -  1) =     -6.67556  eV     1   --> A_1  L_1       
     e(  2 -  3) =     -6.67080  eV     2   --> E    L_3       
     e(  4 -  5) =     -6.52089  eV     2   --> E    L_3       
     e(  6 -  6) =     -3.89791  eV     1   --> A_1  L_1       
     e(  7 -  7) =      7.07958  eV     1   --> A_1  L_1       
     e(  8 -  9) =      7.52435  eV     2   --> E    L_3       
     e( 10 - 10) =      8.63480  eV     1   --> A_1  L_1       
     e( 11 - 11) =     11.67160  eV     1   --> A_1  L_1       
     e( 12 - 13) =     11.72209  eV     2   --> E    L_3       
     e( 14 - 14) =     16.30233  eV     1   --> A_1  L_1       
     e( 15 - 16) =     16.82169  eV     2   --> E    L_3       
     e( 17 - 17) =     18.63417  eV     1   --> A_1  L_1       
     e( 18 - 19) =     19.07949  eV     2   --> E    L_3       
     e( 20 - 20) =     21.76300  eV     1   --> A_1  L_1       
     e( 21 - 21) =     28.83920  eV     1   --> A_1  L_1       
     e( 22 - 23) =     28.96254  eV     2   --> E    L_3       
     e( 24 - 24) =     31.24656  eV     1   --> A_1  L_1       
     e( 25 - 26) =     31.33486  eV     2   --> E    L_3       
     e( 27 - 28) =     31.95806  eV     2   --> E    L_3       
     e( 29 - 29) =     32.02582  eV     1   --> A_1  L_1       
     e( 30 - 30) =     32.28669  eV     1   --> A_2  L_2       

 **************************************************************************

 **************************************************************************

                    xk=(  -0.02632,   0.02632,   0.02632  )

     Band symmetry, C_3v (3m)   point group:

     e(  1 -  1) =     -6.67303  eV     1   --> A_1  L_1       
     e(  2 -  3) =     -6.67187  eV     2   --> E    L_3       
     e(  4 -  5) =     -6.52090  eV     2   --> E    L_3       
     e(  6 -  6) =     -3.92169  eV     1   --> A_1  L_1       
     e(  7 -  7) =      7.40077  eV     1   --> A_1  L_1       
     e(  8 -  9) =      7.55111  eV     2   --> E    L_3       
     e( 10 - 10) =      8.38652  eV     1   --> A_1  L_1       
     e( 11 - 11) =     11.66709  eV     1   --> A_1  L_1       
     e( 12 - 13) =     11.68085  eV     2   --> E    L_3       
     e( 14 - 14) =     16.17138  eV     1   --> A_1  L_1       
     e( 15 - 16) =     16.94867  eV     2   --> E    L_3       
     e( 17 - 17) =     18.75442  eV     1   --> A_1  L_1       
     e( 18 - 19) =     18.87542  eV     2   --> E    L_3       
     e( 20 - 20) =     21.55182  eV     1   --> A_1  L_1       
     e( 21 - 21) =     29.19266  eV     1   --> A_1  L_1       
     e( 22 - 23) =     29.23461  eV     2   --> E    L_3       
     e( 24 - 24) =     31.24624  eV     1   --> A_1  L_1       
     e( 25 - 26) =     31.55228  eV     2   --> E    L_3       
     e( 27 - 27) =     31.76649  eV     1   --> A_1  L_1       
     e( 28 - 29) =     32.01635  eV     2   --> E    L_3       
     e( 30 - 30) =     32.26767  eV     1   --> A_2  L_2       

 **************************************************************************

 **************************************************************************

                    xk=(   0.00000,   0.00000,   0.00000  )

     point group T_d (-43m) 
     there are  5 classes
     the character table:

       E     8C3   3C2   6S4   6s_d 
A_1    1.00  1.00  1.00  1.00  1.00
A_2    1.00  1.00  1.00 -1.00 -1.00
E      2.00 -1.00  2.00  0.00  0.00
T_1    3.00  0.00 -1.00  1.00 -1.00
T_2    3.00  0.00 -1.00 -1.00  1.00

     the symmetry operations in each class and the name of the first element:

     E        1
                                                                 
     8C3      5    7    8    6   12    9   10   11
                                                                 
     3C2      2    3    4
                                                                 
     6S4     15   16   20   19   23   24
                                                                 
     6s_d    13   14   17   18   21   22
                                                                 

     Band symmetry, T_d (-43m)  point group:

     e(  1 -  3) =     -6.67223  eV     3   --> T_2  G_15 P_4  
     e(  4 -  5) =     -6.52090  eV     2   --> E    G_12 P_3  
     e(  6 -  6) =     -3.92964  eV     1   --> A_1  G_1  P_1  
     e(  7 -  9) =      7.56024  eV     3   --> T_2  G_15 P_4  
     e( 10 - 10) =      8.25077  eV     1   --> A_1  G_1  P_1  
     e( 11 - 13) =     11.66680  eV     3   --> T_2  G_15 P_4  
     e( 14 - 14) =     16.12600  eV     1   --> A_1  G_1  P_1  
     e( 15 - 16) =     16.99829  eV     2   --> E    G_12 P_3  
     e( 17 - 19) =     18.80018  eV     3   --> T_2  G_15 P_4  
     e( 20 - 20) =     21.47636  eV     1   --> A_1  G_1  P_1  
     e( 21 - 23) =     29.32815  eV     3   --> T_2  G_15 P_4  
     e( 24 - 24) =     31.24602  eV     1   --> A_1  G_1  P_1  
     e( 25 - 27) =     31.65864  eV     3   --> T_2  G_15 P_4  
     e( 28 - 30) =     32.26131  eV     3   --> T_1  G_25 P_5  

 **************************************************************************

 **************************************************************************

                    xk=(   0.00000,   0.00000,   0.00000  )

     Band symmetry, T_d (-43m)  point group:

     e(  1 -  3) =     -6.67223  eV     3   --> T_2  G_15 P_4  
     e(  4 -  5) =     -6.52090  eV     2   --> E    G_12 P_3  
     e(  6 -  6) =     -3.92964  eV     1   --> A_1  G_1  P_1  
     e(  7 -  9) =      7.56024  eV     3   --> T_2  G_15 P_4  
     e( 10 - 10) =      8.25077  eV     1   --> A_1  G_1  P_1  
     e( 11 - 13) =     11.66680  eV     3   --> T_2  G_15 P_4  
     e( 14 - 14) =     16.12600  eV     1   --> A_1  G_1  P_1  
     e( 15 - 16) =     16.99829  eV     2   --> E    G_12 P_3  
     e( 17 - 19) =     18.80018  eV     3   --> T_2  G_15 P_4  
     e( 20 - 20) =     21.47636  eV     1   --> A_1  G_1  P_1  
     e( 21 - 23) =     29.32815  eV     3   --> T_2  G_15 P_4  
     e( 24 - 24) =     31.24602  eV     1   --> A_1  G_1  P_1  
     e( 25 - 27) =     31.65864  eV     3   --> T_2  G_15 P_4  
     e( 28 - 30) =     32.26131  eV     3   --> T_1  G_25 P_5  

 **************************************************************************

 **************************************************************************

[...]
     e(  4 -  4) =     -6.54501  eV     1   --> A              
     e(  5 -  5) =     -6.50282  eV     1   --> A              
     e(  6 -  6) =     -1.56132  eV     1   --> A              
     e(  7 -  7) =      1.97938  eV     1   --> A              
     e(  8 -  8) =      4.34962  eV     1   --> A              
     e(  9 -  9) =      5.31674  eV     1   --> A              
     e( 10 - 10) =     10.49802  eV     1   --> A              
     e( 11 - 11) =     11.97880  eV     1   --> A              
     e( 12 - 12) =     14.16240  eV     1   --> A              
     e( 13 - 13) =     14.65007  eV     1   --> A              
     e( 14 - 14) =     16.68513  eV     1   --> A              
     e( 15 - 15) =     18.03439  eV     1   --> A              
     e( 16 - 16) =     20.07682  eV     1   --> A              
     e( 17 - 17) =     20.75866  eV     1   --> A              
     e( 18 - 18) =     22.05952  eV     1   --> A              
     e( 19 - 19) =     23.22482  eV     1   --> A              
     e( 20 - 20) =     23.85749  eV     1   --> A              
     e( 21 - 21) =     24.94104  eV     1   --> A              
     e( 22 - 22) =     26.02953  eV     1   --> A              
     e( 23 - 23) =     27.10414  eV     1   --> A              
     e( 24 - 24) =     27.48420  eV     1   --> A              
     e( 25 - 25) =     28.95446  eV     1   --> A              
     e( 26 - 26) =     30.43700  eV     1   --> A              
     e( 27 - 27) =     30.60971  eV     1   --> A              
     e( 28 - 28) =     31.24670  eV     1   --> A              
     e( 29 - 29) =     31.77742  eV     1   --> A              
     e( 30 - 30) =     32.30102  eV     1   --> A              

 **************************************************************************

 **************************************************************************

                    xk=(  -0.84211,   0.65789,   0.00000  )

     Band symmetry, C_1 (1)     point group:

     e(  1 -  1) =     -6.82277  eV     1   --> A              
     e(  2 -  2) =     -6.60531  eV     1   --> A              
     e(  3 -  3) =     -6.58172  eV     1   --> A              
     e(  4 -  4) =     -6.54544  eV     1   --> A              
     e(  5 -  5) =     -6.50245  eV     1   --> A              
     e(  6 -  6) =     -1.56753  eV     1   --> A              
     e(  7 -  7) =      1.97827  eV     1   --> A              
     e(  8 -  8) =      4.33367  eV     1   --> A              
     e(  9 -  9) =      5.38234  eV     1   --> A              
     e( 10 - 10) =     10.37524  eV     1   --> A              
     e( 11 - 11) =     11.97424  eV     1   --> A              
     e( 12 - 12) =     14.29900  eV     1   --> A              
     e( 13 - 13) =     14.74858  eV     1   --> A              
     e( 14 - 14) =     16.54855  eV     1   --> A              
     e( 15 - 15) =     17.92168  eV     1   --> A              
     e( 16 - 16) =     20.16303  eV     1   --> A              
     e( 17 - 17) =     20.87001  eV     1   --> A              
     e( 18 - 18) =     22.05306  eV     1   --> A              
     e( 19 - 19) =     23.09728  eV     1   --> A              
     e( 20 - 20) =     23.79686  eV     1   --> A              
     e( 21 - 21) =     24.87244  eV     1   --> A              
     e( 22 - 22) =     26.13381  eV     1   --> A              
     e( 23 - 23) =     27.21139  eV     1   --> A              
     e( 24 - 24) =     27.60167  eV     1   --> A              
     e( 25 - 25) =     28.85026  eV     1   --> A              
     e( 26 - 26) =     30.26675  eV     1   --> A              
     e( 27 - 27) =     30.54651  eV     1   --> A              
     e( 28 - 28) =     31.24661  eV     1   --> A              
     e( 29 - 29) =     31.74361  eV     1   --> A              
     e( 30 - 30) =     32.35848  eV     1   --> A              

 **************************************************************************

 **************************************************************************

                    xk=(  -0.82895,   0.67105,   0.00000  )

     Band symmetry, C_1 (1)     point group:

     e(  1 -  1) =     -6.82319  eV     1   --> A              
     e(  2 -  2) =     -6.60425  eV     1   --> A              
     e(  3 -  3) =     -6.58228  eV     1   --> A              
     e(  4 -  4) =     -6.54583  eV     1   --> A              
     e(  5 -  5) =     -6.50212  eV     1   --> A              
     e(  6 -  6) =     -1.57315  eV     1   --> A              
     e(  7 -  7) =      1.97715  eV     1   --> A              
     e(  8 -  8) =      4.31979  eV     1   --> A              
     e(  9 -  9) =      5.44352  eV     1   --> A              
     e( 10 - 10) =     10.26408  eV     1   --> A              
     e( 11 - 11) =     11.96982  eV     1   --> A              
     e( 12 - 12) =     14.43617  eV     1   --> A              
     e( 13 - 13) =     14.84178  eV     1   --> A              
     e( 14 - 14) =     16.41144  eV     1   --> A              
     e( 15 - 15) =     17.81544  eV     1   --> A              
     e( 16 - 16) =     20.24131  eV     1   --> A              
     e( 17 - 17) =     20.98152  eV     1   --> A              
     e( 18 - 18) =     22.04592  eV     1   --> A              
     e( 19 - 19) =     22.97277  eV     1   --> A              
     e( 20 - 20) =     23.74384  eV     1   --> A              
     e( 21 - 21) =     24.80915  eV     1   --> A              
     e( 22 - 22) =     26.23577  eV     1   --> A              
     e( 23 - 23) =     27.28954  eV     1   --> A              
     e( 24 - 24) =     27.74306  eV     1   --> A              
     e( 25 - 25) =     28.74639  eV     1   --> A              
     e( 26 - 26) =     30.07706  eV     1   --> A              
     e( 27 - 27) =     30.50406  eV     1   --> A              
     e( 28 - 28) =     31.24643  eV     1   --> A              
     e( 29 - 29) =     31.71349  eV     1   --> A              
     e( 30 - 30) =     32.42659  eV     1   --> A              

 **************************************************************************

 **************************************************************************

                    xk=(  -0.81579,   0.68421,   0.00000  )

     Band symmetry, C_1 (1)     point group:

     e(  1 -  1) =     -6.82356  eV     1   --> A              
     e(  2 -  2) =     -6.60324  eV     1   --> A              
     e(  3 -  3) =     -6.58283  eV     1   --> A              
     e(  4 -  4) =     -6.54619  eV     1   --> A              
     e(  5 -  5) =     -6.50183  eV     1   --> A              
     e(  6 -  6) =     -1.57807  eV     1   --> A              
     e(  7 -  7) =      1.97608  eV     1   --> A              
     e(  8 -  8) =      4.30800  eV     1   --> A              
     e(  9 -  9) =      5.49881  eV     1   --> A              
     e( 10 - 10) =     10.16637  eV     1   --> A              
     e( 11 - 11) =     11.96575  eV     1   --> A              
     e( 12 - 12) =     14.57249  eV     1   --> A              
     e( 13 - 13) =     14.92725  eV     1   --> A              
     e( 14 - 14) =     16.27566  eV     1   --> A              
     e( 15 - 15) =     17.71854  eV     1   --> A              
     e( 16 - 16) =     20.30979  eV     1   --> A              
     e( 17 - 17) =     21.09208  eV     1   --> A              
     e( 18 - 18) =     22.03758  eV     1   --> A              
     e( 19 - 19) =     22.85382  eV     1   --> A              
     e( 20 - 20) =     23.69864  eV     1   --> A              
     e( 21 - 21) =     24.75313  eV     1   --> A              
     e( 22 - 22) =     26.33289  eV     1   --> A              
     e( 23 - 23) =     27.34275  eV     1   --> A              
     e( 24 - 24) =     27.90349  eV     1   --> A              
     e( 25 - 25) =     28.64782  eV     1   --> A              
     e( 26 - 26) =     29.87976  eV     1   --> A              
     e( 27 - 27) =     30.47172  eV     1   --> A              
     e( 28 - 28) =     31.24634  eV     1   --> A              
     e( 29 - 29) =     31.68757  eV     1   --> A              
     e( 30 - 30) =     32.49923  eV     1   --> A              

 **************************************************************************

 **************************************************************************

                    xk=(  -0.80263,   0.69737,   0.00000  )

     Band symmetry, C_1 (1)     point group:

     e(  1 -  1) =     -6.82388  eV     1   --> A              
     e(  2 -  2) =     -6.60233  eV     1   --> A              
     e(  3 -  3) =     -6.58333  eV     1   --> A              
     e(  4 -  4) =     -6.54649  eV     1   --> A              
     e(  5 -  5) =     -6.50158  eV     1   --> A              
     e(  6 -  6) =     -1.58222  eV     1   --> A              
     e(  7 -  7) =      1.97512  eV     1   --> A              
     e(  8 -  8) =      4.29833  eV     1   --> A              
     e(  9 -  9) =      5.54666  eV     1   --> A              
     e( 10 - 10) =     10.08368  eV     1   --> A              
     e( 11 - 11) =     11.96221  eV     1   --> A              
     e( 12 - 12) =     14.70582  eV     1   --> A              
     e( 13 - 13) =     15.00200  eV     1   --> A              
     e( 14 - 14) =     16.14369  eV     1   --> A              
     e( 15 - 15) =     17.63351  eV     1   --> A              
     e( 16 - 16) =     20.36750  eV     1   --> A              
     e( 17 - 17) =     21.19937  eV     1   --> A              
     e( 18 - 18) =     22.02704  eV     1   --> A              
     e( 19 - 19) =     22.74369  eV     1   --> A              
     e( 20 - 20) =     23.66151  eV     1   --> A              
     e( 21 - 21) =     24.70550  eV     1   --> A              
     e( 22 - 22) =     26.42224  eV     1   --> A              
     e( 23 - 23) =     27.37789  eV     1   --> A              
     e( 24 - 24) =     28.07457  eV     1   --> A              
     e( 25 - 25) =     28.56032  eV     1   --> A              
     e( 26 - 26) =     29.67899  eV     1   --> A              
     e( 27 - 27) =     30.44646  eV     1   --> A              
     e( 28 - 28) =     31.24630  eV     1   --> A              
     e( 29 - 29) =     31.66623  eV     1   --> A              
     e( 30 - 30) =     32.56990  eV     1   --> A              

 **************************************************************************

 **************************************************************************

                    xk=(  -0.78947,   0.71053,   0.00000  )

     Band symmetry, C_1 (1)     point group:

     e(  1 -  1) =     -6.82413  eV     1   --> A              
     e(  2 -  2) =     -6.60154  eV     1   --> A              
     e(  3 -  3) =     -6.58378  eV     1   --> A              
     e(  4 -  4) =     -6.54673  eV     1   --> A              
     e(  5 -  5) =     -6.50138  eV     1   --> A              
     e(  6 -  6) =     -1.58551  eV     1   --> A              
     e(  7 -  7) =      1.97432  eV     1   --> A              
     e(  8 -  8) =      4.29078  eV     1   --> A              
     e(  9 -  9) =      5.58566  eV     1   --> A              
     e( 10 - 10) =     10.01755  eV     1   --> A              
     e( 11 - 11) =     11.95933  eV     1   --> A              
     e( 12 - 12) =     14.83277  eV     1   --> A              
     e( 13 - 13) =     15.06242  eV     1   --> A              
     e( 14 - 14) =     16.01980  eV     1   --> A              
     e( 15 - 15) =     17.56301  eV     1   --> A              
     e( 16 - 16) =     20.41303  eV     1   --> A              
     e( 17 - 17) =     21.29933  eV     1   --> A              
     e( 18 - 18) =     22.01343  eV     1   --> A              
     e( 19 - 19) =     22.64732  eV     1   --> A              
     e( 20 - 20) =     23.63253  eV     1   --> A              
     e( 21 - 21) =     24.66705  eV     1   --> A              
     e( 22 - 22) =     26.49987  eV     1   --> A              
     e( 23 - 23) =     27.40007  eV     1   --> A              
     e( 24 - 24) =     28.24280  eV     1   --> A              
     e( 25 - 25) =     28.49765  eV     1   --> A              
     e( 26 - 26) =     29.47680  eV     1   --> A              
     e( 27 - 27) =     30.42732  eV     1   --> A              
     e( 28 - 28) =     31.24627  eV     1   --> A              
     e( 29 - 29) =     31.64961  eV     1   --> A              
     e( 30 - 30) =     32.63275  eV     1   --> A              

 **************************************************************************

 **************************************************************************

                    xk=(  -0.77632,   0.72368,   0.00000  )

     Band symmetry, C_1 (1)     point group:

     e(  1 -  1) =     -6.82432  eV     1   --> A              
     e(  2 -  2) =     -6.60094  eV     1   --> A              
     e(  3 -  3) =     -6.58414  eV     1   --> A              
     e(  4 -  4) =     -6.54691  eV     1   --> A              
     e(  5 -  5) =     -6.50123  eV     1   --> A              
     e(  6 -  6) =     -1.58791  eV     1   --> A              
     e(  7 -  7) =      1.97372  eV     1   --> A              
     e(  8 -  8) =      4.28539  eV     1   --> A              
     e(  9 -  9) =      5.61453  eV     1   --> A              
     e( 10 - 10) =      9.96926  eV     1   --> A              
     e( 11 - 11) =     11.95721  eV     1   --> A              
     e( 12 - 12) =     14.94732  eV     1   --> A              
     e( 13 - 13) =     15.10391  eV     1   --> A              
     e( 14 - 14) =     15.91171  eV     1   --> A              
     e( 15 - 15) =     17.50995  eV     1   --> A              
     e( 16 - 16) =     20.44596  eV     1   --> A              
     e( 17 - 17) =     21.38513  eV     1   --> A              
     e( 18 - 18) =     21.99691  eV     1   --> A              
     e( 19 - 19) =     22.57103  eV     1   --> A              
     e( 20 - 20) =     23.61179  eV     1   --> A              
     e( 21 - 21) =     24.63885  eV     1   --> A              
     e( 22 - 22) =     26.56091  eV     1   --> A              
     e( 23 - 23) =     27.41294  eV     1   --> A              
     e( 24 - 24) =     28.34360  eV     1   --> A              
     e( 25 - 25) =     28.52580  eV     1   --> A              
     e( 26 - 26) =     29.27471  eV     1   --> A              
     e( 27 - 27) =     30.41373  eV     1   --> A              
     e( 28 - 28) =     31.24621  eV     1   --> A              
     e( 29 - 29) =     31.63770  eV     1   --> A              
     e( 30 - 30) =     32.68185  eV     1   --> A              

 **************************************************************************

 **************************************************************************

                    xk=(  -0.76316,   0.73684,   0.00000  )

     Band symmetry, C_1 (1)     point group:

     e(  1 -  1) =     -6.82444  eV     1   --> A              
     e(  2 -  2) =     -6.60055  eV     1   --> A              
     e(  3 -  3) =     -6.58437  eV     1   --> A              
     e(  4 -  4) =     -6.54702  eV     1   --> A              
     e(  5 -  5) =     -6.50113  eV     1   --> A              
     e(  6 -  6) =     -1.58936  eV     1   --> A              
     e(  7 -  7) =      1.97334  eV     1   --> A              
     e(  8 -  8) =      4.28215  eV     1   --> A              
     e(  9 -  9) =      5.63229  eV     1   --> A              
     e( 10 - 10) =      9.93986  eV     1   --> A              
     e( 11 - 11) =     11.95596  eV     1   --> A              
     e( 12 - 12) =     15.03958  eV     1   --> A              
     e( 13 - 13) =     15.12018  eV     1   --> A              
     e( 14 - 14) =     15.83324  eV     1   --> A              
     e( 15 - 15) =     17.47703  eV     1   --> A              
     e( 16 - 16) =     20.46588  eV     1   --> A              
     e( 17 - 17) =     21.44620  eV     1   --> A              
     e( 18 - 18) =     21.98137  eV     1   --> A              
     e( 19 - 19) =     22.52170  eV     1   --> A              
     e( 20 - 20) =     23.59936  eV     1   --> A              
     e( 21 - 21) =     24.62177  eV     1   --> A              
     e( 22 - 22) =     26.60048  eV     1   --> A              
     e( 23 - 23) =     27.41929  eV     1   --> A              
     e( 24 - 24) =     28.33917  eV     1   --> A              
     e( 25 - 25) =     28.68495  eV     1   --> A              
     e( 26 - 26) =     29.07422  eV     1   --> A              
     e( 27 - 27) =     30.40563  eV     1   --> A              
     e( 28 - 28) =     31.24626  eV     1   --> A              
     e( 29 - 29) =     31.63056  eV     1   --> A              
     e( 30 - 30) =     32.71327  eV     1   --> A              

 **************************************************************************

 **************************************************************************

                    xk=(  -0.75000,   0.75000,   0.00000  )

     point group C_s (m)    
     there are  2 classes
     the character table:

       E     s    
A'     1.00  1.00
A''    1.00 -1.00

     the symmetry operations in each class and the name of the first element:

     E        1
                                                                 
     s        2
                                                                 

     Band symmetry, C_s (m)     point group:

     e(  1 -  1) =     -6.82448  eV     1   --> A'             
     e(  2 -  2) =     -6.60042  eV     1   --> A'             
     e(  3 -  3) =     -6.58445  eV     1   --> A''            
     e(  4 -  4) =     -6.54705  eV     1   --> A'             
     e(  5 -  5) =     -6.50110  eV     1   --> A''            
     e(  6 -  6) =     -1.58985  eV     1   --> A'             
     e(  7 -  7) =      1.97322  eV     1   --> A'             
     e(  8 -  8) =      4.28106  eV     1   --> A'             
     e(  9 -  9) =      5.63828  eV     1   --> A''            
     e( 10 - 10) =      9.92998  eV     1   --> A'             
     e( 11 - 11) =     11.95552  eV     1   --> A'             
     e( 12 - 12) =     15.08937  eV     1   --> A''            
     e( 13 - 13) =     15.11030  eV     1   --> A'             
     e( 14 - 14) =     15.80351  eV     1   --> A'             
     e( 15 - 15) =     17.46580  eV     1   --> A''            
     e( 16 - 16) =     20.47254  eV     1   --> A'             
     e( 17 - 17) =     21.46882  eV     1   --> A''            
     e( 18 - 18) =     21.97450  eV     1   --> A'             
     e( 19 - 19) =     22.50461  eV     1   --> A'             
     e( 20 - 20) =     23.59521  eV     1   --> A'             
     e( 21 - 21) =     24.61597  eV     1   --> A''            
     e( 22 - 22) =     26.61416  eV     1   --> A'             
     e( 23 - 23) =     27.42114  eV     1   --> A''            
     e( 24 - 24) =     28.33093  eV     1   --> A'             
     e( 25 - 25) =     28.85980  eV     1   --> A'             
     e( 26 - 26) =     28.89196  eV     1   --> A''            
     e( 27 - 27) =     30.40293  eV     1   --> A'             
     e( 28 - 28) =     31.24624  eV     1   --> A'             
     e( 29 - 29) =     31.62818  eV     1   --> A'             
     e( 30 - 30) =     32.72404  eV     1   --> A''            

 **************************************************************************

     BANDS        :     23.03s CPU     28.86s WALL


   This run was terminated on:  17:42: 0  16Jun2025            

=------------------------------------------------------------------------------=
   JOB DONE.
=------------------------------------------------------------------------------=
