
     Program PWSCF v.7.4.1 starts on 16Jun2025 at 17:29:50 

     This program is part of the open-source Quantum ESPRESSO suite
     for quantum simulation of materials; please cite
         "P. Giannozzi et al., J. Phys.:Condens. Matter 21 395502 (2009);
         "P. Giannozzi et al., J. Phys.:Condens. Matter 29 465901 (2017);
         "P. Giannozzi et al., J. Chem. Phys. 152 154105 (2020);
          URL http://www.quantum-espresso.org", 
     in publications or presentations arising from this work. More details at
     http://www.quantum-espresso.org/quote

     Parallel version (MPI), running on     1 processors

     MPI processes distributed on     1 nodes
     5472 MiB available memory on the printing compute node when the environment starts

     Waiting for input...
     Reading input from standard input

     Current dimensions of program PWSCF are:
     Max number of different atomic species (ntypx) = 10
     Max number of k-points (npk) =  40000
     Max angular momentum in pseudopotentials (lmaxx) =  4

     IMPORTANT: XC functional enforced from input :
     Exchange-correlation= PBE
                           (   1   4   3   4   0   0   0)
     Any further DFT definition will be discarded
     Please, verify this is what you really want


     Atomic positions and unit cell read from directory:
     ./tmp/InP_example/InP_example.save/

     Message from routine setup:
     no reason to have ecutrho>4*ecutwfc

     Subspace diagonalization in iterative solution of the eigenvalue problem:
     a serial algorithm will be used


     G-vector sticks info
     --------------------
     sticks:   dense  smooth     PW     G-vecs:    dense   smooth      PW
     Sum        1675     847    253                45863    16361    2685

     Using Slab Decomposition



     bravais-lattice index     =            2
     lattice parameter (alat)  =      11.0904  a.u.
     unit-cell volume          =     341.0241 (a.u.)^3
     number of atoms/cell      =            2
     number of atomic types    =            2
     number of electrons       =        18.00
     number of Kohn-Sham states=           30
     kinetic-energy cutoff     =      50.0000  Ry
     charge density cutoff     =     400.0000  Ry
     Exchange-correlation= PBE
                           (   1   4   3   4   0   0   0)

     celldm(1)=  11.090429  celldm(2)=   0.000000  celldm(3)=   0.000000
     celldm(4)=   0.000000  celldm(5)=   0.000000  celldm(6)=   0.000000

     crystal axes: (cart. coord. in units of alat)
               a(1) = (  -0.500000   0.000000   0.500000 )  
               a(2) = (   0.000000   0.500000   0.500000 )  
               a(3) = (  -0.500000   0.500000   0.000000 )  

     reciprocal axes: (cart. coord. in units 2 pi/alat)
               b(1) = ( -1.000000 -1.000000  1.000000 )  
               b(2) = (  1.000000  1.000000  1.000000 )  
               b(3) = ( -1.000000  1.000000 -1.000000 )  


     PseudoPot. # 1 for In read from file:
     ./pseudo/In_ONCV_PBE-1.1.upf
     MD5 check sum: cfb71249e37c12735265aadc7be2b9c7
     Pseudo is Norm-conserving, Zval = 13.0
     Generated using ONCVPSP code by D. R. Hamann
     Using radial grid of  602 points,  6 beta functions with: 
                l(1) =   0
                l(2) =   0
                l(3) =   1
                l(4) =   1
                l(5) =   2
                l(6) =   2

     PseudoPot. # 2 for P  read from file:
     ./pseudo/P_ONCV_PBE-1.1.upf
     MD5 check sum: 4b2d52bb07028101b5e4ab16d0be99ae
     Pseudo is Norm-conserving, Zval =  5.0
     Generated using ONCVPSP code by D. R. Hamann
     Using radial grid of  602 points,  4 beta functions with: 
                l(1) =   0
                l(2) =   0
                l(3) =   1
                l(4) =   1

     atomic species   valence    mass     pseudopotential
     In               13.00   114.81800     In( 1.00)
     P                 5.00    30.97400     P ( 1.00)

     24 Sym. Ops. (no inversion) found



   Cartesian axes

     site n.     atom                  positions (alat units)
         1        In     tau(   1) = (   0.0000000   0.0000000   0.0000000  )
         2        P      tau(   2) = (  -0.2500000   0.2500000   0.2500000  )

     number of k points=   100

     Number of k-points >= 100: set verbosity='high' to print them.

     Dense  grid:    45863 G-vectors     FFT dimensions: (  50,  50,  50)

     Smooth grid:    16361 G-vectors     FFT dimensions: (  36,  36,  36)

     Estimated max dynamical RAM per process >      24.83 MB

     The potential is recalculated from file :
     ./tmp/InP_example/InP_example.save/charge-density

     Starting wfcs are random

     Band Structure Calculation
     Davidson diagonalization with overlap

     ethr =  5.56E-11,  avg # of iterations = 50.3

     total cpu time spent up to now is      219.3 secs

     End of band structure calculation

     Number of k-points >= 100: set verbosity='high' to print the bands.

     highest occupied, lowest unoccupied level (ev):     7.5602    8.2508

     Writing all to output data dir ./tmp/InP_example/InP_example.save/ :
     XML data file, pseudopotentials, collected wavefunctions

     init_run     :      0.61s CPU      0.68s WALL (       1 calls)
     electrons    :    217.20s CPU    218.55s WALL (       1 calls)

     Called by init_run:
     wfcinit      :      0.00s CPU      0.00s WALL (       1 calls)
     potinit      :      0.30s CPU      0.34s WALL (       1 calls)
     hinit0       :      0.27s CPU      0.29s WALL (       1 calls)

     Called by electrons:
     c_bands      :    217.20s CPU    218.55s WALL (       1 calls)
     v_of_rho     :      0.04s CPU      0.06s WALL (       1 calls)

     Called by c_bands:
     init_us_2    :      0.05s CPU      0.07s WALL (     100 calls)
     cegterg      :    212.61s CPU    213.45s WALL (     299 calls)

     Called by *egterg:
     cdiaghg      :      8.48s CPU      9.20s WALL (    5131 calls)
     h_psi        :     92.48s CPU     93.20s WALL (    5430 calls)
     g_psi        :      2.17s CPU      2.35s WALL (    5031 calls)

     Called by h_psi:
     h_psi:calbec :     10.16s CPU     11.05s WALL (    5430 calls)
     vloc_psi     :     70.98s CPU     69.84s WALL (    5430 calls)
     add_vuspsi   :     10.86s CPU     11.80s WALL (    5430 calls)

     General routines
     calbec       :     10.14s CPU     11.04s WALL (    5430 calls)
     fft          :      0.22s CPU      0.24s WALL (      11 calls)
     ffts         :      0.26s CPU      0.28s WALL (       1 calls)
     fftw         :     53.59s CPU     53.42s WALL (  209546 calls)
     interpolate  :      0.26s CPU      0.28s WALL (       1 calls)
     davcio       :      0.08s CPU      0.13s WALL (     200 calls)

     Parallel routines

     PWSCF        :   3m37.90s CPU   3m39.46s WALL


   This run was terminated on:  17:33:30  16Jun2025            

=------------------------------------------------------------------------------=
   JOB DONE.
=------------------------------------------------------------------------------=
