
     Program PWSCF v.7.4.1 starts on 16Jun2025 at 17:28:15 

     This program is part of the open-source Quantum ESPRESSO suite
     for quantum simulation of materials; please cite
         "P. Giannozzi et al., J. Phys.:Condens. Matter 21 395502 (2009);
         "P. Giannozzi et al., J. Phys.:Condens. Matter 29 465901 (2017);
         "P. Giannozzi et al., J. Chem. Phys. 152 154105 (2020);
          URL http://www.quantum-espresso.org", 
     in publications or presentations arising from this work. More details at
     http://www.quantum-espresso.org/quote

     Parallel version (MPI), running on     1 processors

     MPI processes distributed on     1 nodes
     5547 MiB available memory on the printing compute node when the environment starts

     Waiting for input...
     Reading input from standard input

     Current dimensions of program PWSCF are:
     Max number of different atomic species (ntypx) = 10
     Max number of k-points (npk) =  40000
     Max angular momentum in pseudopotentials (lmaxx) =  4

     IMPORTANT: XC functional enforced from input :
     Exchange-correlation= PBE
                           (   1   4   3   4   0   0   0)
     Any further DFT definition will be discarded
     Please, verify this is what you really want

     Message from routine setup:
     no reason to have ecutrho>4*ecutwfc

     Subspace diagonalization in iterative solution of the eigenvalue problem:
     a serial algorithm will be used


     G-vector sticks info
     --------------------
     sticks:   dense  smooth     PW     G-vecs:    dense   smooth      PW
     Sum        1675     847    253                45863    16361    2733

     Using Slab Decomposition



     bravais-lattice index     =            2
     lattice parameter (alat)  =      11.0904  a.u.
     unit-cell volume          =     341.0241 (a.u.)^3
     number of atoms/cell      =            2
     number of atomic types    =            2
     number of electrons       =        18.00
     number of Kohn-Sham states=           30
     kinetic-energy cutoff     =      50.0000  Ry
     charge density cutoff     =     400.0000  Ry
     scf convergence threshold =      1.0E-08
     mixing beta               =       0.7000
     number of iterations used =            8  plain     mixing
     Exchange-correlation= PBE
                           (   1   4   3   4   0   0   0)

     celldm(1)=  11.090429  celldm(2)=   0.000000  celldm(3)=   0.000000
     celldm(4)=   0.000000  celldm(5)=   0.000000  celldm(6)=   0.000000

     crystal axes: (cart. coord. in units of alat)
               a(1) = (  -0.500000   0.000000   0.500000 )  
               a(2) = (   0.000000   0.500000   0.500000 )  
               a(3) = (  -0.500000   0.500000   0.000000 )  

     reciprocal axes: (cart. coord. in units 2 pi/alat)
               b(1) = ( -1.000000 -1.000000  1.000000 )  
               b(2) = (  1.000000  1.000000  1.000000 )  
               b(3) = ( -1.000000  1.000000 -1.000000 )  


     PseudoPot. # 1 for In read from file:
     ./pseudo/In_ONCV_PBE-1.1.upf
     MD5 check sum: cfb71249e37c12735265aadc7be2b9c7
     Pseudo is Norm-conserving, Zval = 13.0
     Generated using ONCVPSP code by D. R. Hamann
     Using radial grid of  602 points,  6 beta functions with: 
                l(1) =   0
                l(2) =   0
                l(3) =   1
                l(4) =   1
                l(5) =   2
                l(6) =   2

     PseudoPot. # 2 for P  read from file:
     ./pseudo/P_ONCV_PBE-1.1.upf
     MD5 check sum: 4b2d52bb07028101b5e4ab16d0be99ae
     Pseudo is Norm-conserving, Zval =  5.0
     Generated using ONCVPSP code by D. R. Hamann
     Using radial grid of  602 points,  4 beta functions with: 
                l(1) =   0
                l(2) =   0
                l(3) =   1
                l(4) =   1

     atomic species   valence    mass     pseudopotential
     In               13.00   114.81800     In( 1.00)
     P                 5.00    30.97400     P ( 1.00)

     24 Sym. Ops. (no inversion) found



   Cartesian axes

     site n.     atom                  positions (alat units)
         1        In     tau(   1) = (   0.0000000   0.0000000   0.0000000  )
         2        P      tau(   2) = (  -0.2500000   0.2500000   0.2500000  )

     number of k points=    72
                       cart. coord. in units 2pi/alat
        k(    1) = (   0.0000000   0.0000000   0.0000000), wk =   0.0011574
        k(    2) = (  -0.0833333   0.0833333  -0.0833333), wk =   0.0092593
        k(    3) = (  -0.1666667   0.1666667  -0.1666667), wk =   0.0092593
        k(    4) = (  -0.2500000   0.2500000  -0.2500000), wk =   0.0092593
        k(    5) = (  -0.3333333   0.3333333  -0.3333333), wk =   0.0092593
        k(    6) = (  -0.4166667   0.4166667  -0.4166667), wk =   0.0092593
        k(    7) = (   0.5000000  -0.5000000   0.5000000), wk =   0.0046296
        k(    8) = (   0.0000000   0.1666667   0.0000000), wk =   0.0069444
        k(    9) = (  -0.0833333   0.2500000  -0.0833333), wk =   0.0277778
        k(   10) = (  -0.1666667   0.3333333  -0.1666667), wk =   0.0277778
        k(   11) = (  -0.2500000   0.4166667  -0.2500000), wk =   0.0277778
        k(   12) = (  -0.3333333   0.5000000  -0.3333333), wk =   0.0277778
        k(   13) = (   0.5833333  -0.4166667   0.5833333), wk =   0.0277778
        k(   14) = (   0.5000000  -0.3333333   0.5000000), wk =   0.0277778
        k(   15) = (   0.4166667  -0.2500000   0.4166667), wk =   0.0277778
        k(   16) = (   0.3333333  -0.1666667   0.3333333), wk =   0.0277778
        k(   17) = (   0.2500000  -0.0833333   0.2500000), wk =   0.0277778
        k(   18) = (   0.1666667  -0.0000000   0.1666667), wk =   0.0138889
        k(   19) = (   0.0000000   0.3333333   0.0000000), wk =   0.0069444
        k(   20) = (  -0.0833333   0.4166667  -0.0833333), wk =   0.0277778
        k(   21) = (  -0.1666667   0.5000000  -0.1666667), wk =   0.0277778
        k(   22) = (  -0.2500000   0.5833333  -0.2500000), wk =   0.0277778
        k(   23) = (   0.6666667  -0.3333333   0.6666667), wk =   0.0277778
        k(   24) = (   0.5833333  -0.2500000   0.5833333), wk =   0.0277778
        k(   25) = (   0.5000000  -0.1666667   0.5000000), wk =   0.0277778
        k(   26) = (   0.4166667  -0.0833333   0.4166667), wk =   0.0277778
        k(   27) = (   0.3333333   0.0000000   0.3333333), wk =   0.0138889
        k(   28) = (   0.0000000   0.5000000   0.0000000), wk =   0.0069444
        k(   29) = (  -0.0833333   0.5833333  -0.0833333), wk =   0.0277778
        k(   30) = (  -0.1666667   0.6666667  -0.1666667), wk =   0.0277778
        k(   31) = (   0.7500000  -0.2500000   0.7500000), wk =   0.0277778
        k(   32) = (   0.6666667  -0.1666667   0.6666667), wk =   0.0277778
        k(   33) = (   0.5833333  -0.0833333   0.5833333), wk =   0.0277778
        k(   34) = (   0.5000000   0.0000000   0.5000000), wk =   0.0138889
        k(   35) = (   0.0000000   0.6666667   0.0000000), wk =   0.0069444
        k(   36) = (  -0.0833333   0.7500000  -0.0833333), wk =   0.0277778
        k(   37) = (   0.8333333  -0.1666667   0.8333333), wk =   0.0277778
        k(   38) = (   0.7500000  -0.0833333   0.7500000), wk =   0.0277778
        k(   39) = (   0.6666667  -0.0000000   0.6666667), wk =   0.0138889
        k(   40) = (   0.0000000   0.8333333   0.0000000), wk =   0.0069444
        k(   41) = (   0.9166667  -0.0833333   0.9166667), wk =   0.0277778
        k(   42) = (   0.8333333   0.0000000   0.8333333), wk =   0.0138889
        k(   43) = (   0.0000000  -1.0000000   0.0000000), wk =   0.0034722
        k(   44) = (  -0.1666667   0.3333333   0.0000000), wk =   0.0277778
        k(   45) = (  -0.2500000   0.4166667  -0.0833333), wk =   0.0555556
        k(   46) = (  -0.3333333   0.5000000  -0.1666667), wk =   0.0555556
        k(   47) = (   0.5833333  -0.4166667   0.7500000), wk =   0.0555556
        k(   48) = (   0.5000000  -0.3333333   0.6666667), wk =   0.0277778
        k(   49) = (  -0.1666667   0.5000000   0.0000000), wk =   0.0277778
        k(   50) = (  -0.2500000   0.5833333  -0.0833333), wk =   0.0555556
        k(   51) = (   0.6666667  -0.3333333   0.8333333), wk =   0.0555556
        k(   52) = (   0.5833333  -0.2500000   0.7500000), wk =   0.0555556
        k(   53) = (   0.5000000  -0.1666667   0.6666667), wk =   0.0555556
        k(   54) = (   0.4166667  -0.0833333   0.5833333), wk =   0.0555556
        k(   55) = (   0.3333333   0.0000000   0.5000000), wk =   0.0277778
        k(   56) = (  -0.1666667   0.6666667  -0.0000000), wk =   0.0277778
        k(   57) = (   0.7500000  -0.2500000   0.9166667), wk =   0.0555556
        k(   58) = (   0.6666667  -0.1666667   0.8333333), wk =   0.0555556
        k(   59) = (   0.5833333  -0.0833333   0.7500000), wk =   0.0555556
        k(   60) = (   0.5000000   0.0000000   0.6666667), wk =   0.0277778
        k(   61) = (   0.8333333  -0.1666667   1.0000000), wk =   0.0277778
        k(   62) = (   0.7500000  -0.0833333   0.9166667), wk =   0.0555556
        k(   63) = (   0.6666667   0.0000000   0.8333333), wk =   0.0277778
        k(   64) = (  -0.1666667  -1.0000000  -0.0000000), wk =   0.0138889
        k(   65) = (   0.6666667  -0.3333333   1.0000000), wk =   0.0277778
        k(   66) = (   0.5833333  -0.2500000   0.9166667), wk =   0.0555556
        k(   67) = (   0.5000000  -0.1666667   0.8333333), wk =   0.0277778
        k(   68) = (   0.6666667  -0.1666667   1.0000000), wk =   0.0277778
        k(   69) = (   0.5833333  -0.0833333   0.9166667), wk =   0.0555556
        k(   70) = (   0.5000000   0.0000000   0.8333333), wk =   0.0277778
        k(   71) = (  -0.3333333  -1.0000000   0.0000000), wk =   0.0138889
        k(   72) = (  -0.5000000  -1.0000000   0.0000000), wk =   0.0069444

     Dense  grid:    45863 G-vectors     FFT dimensions: (  50,  50,  50)

     Smooth grid:    16361 G-vectors     FFT dimensions: (  36,  36,  36)

     Estimated max dynamical RAM per process >     104.79 MB

     Initial potential from superposition of free atoms

     starting charge      17.8730, renormalised to      18.0000
     Starting wfcs are random

     total cpu time spent up to now is        3.8 secs

     Self-consistent Calculation

     iteration #  1     ecut=    50.00 Ry     beta= 0.70
     Davidson diagonalization with overlap
     ethr =  1.00E-02,  avg # of iterations =  8.6

     Threshold (ethr) on eigenvalues was too large:
     Diagonalizing with lowered threshold

     Davidson diagonalization with overlap
     ethr =  7.18E-04,  avg # of iterations =  1.3

     total cpu time spent up to now is       35.5 secs

     total energy              =    -117.76511866 Ry
     estimated scf accuracy    <       0.12558628 Ry

     iteration #  2     ecut=    50.00 Ry     beta= 0.70
     Davidson diagonalization with overlap
     ethr =  6.98E-04,  avg # of iterations =  2.2

     total cpu time spent up to now is       44.0 secs

     total energy              =    -117.80159786 Ry
     estimated scf accuracy    <       0.04544698 Ry

     iteration #  3     ecut=    50.00 Ry     beta= 0.70
     Davidson diagonalization with overlap
     ethr =  2.52E-04,  avg # of iterations =  2.1

     total cpu time spent up to now is       52.1 secs

     total energy              =    -117.81121412 Ry
     estimated scf accuracy    <       0.00059882 Ry

     iteration #  4     ecut=    50.00 Ry     beta= 0.70
     Davidson diagonalization with overlap
     ethr =  3.33E-06,  avg # of iterations = 10.3

     total cpu time spent up to now is       66.7 secs

     total energy              =    -117.81128348 Ry
     estimated scf accuracy    <       0.00001088 Ry

     iteration #  5     ecut=    50.00 Ry     beta= 0.70
     Davidson diagonalization with overlap
     ethr =  6.04E-08,  avg # of iterations =  1.8

     total cpu time spent up to now is       76.8 secs

     total energy              =    -117.81128593 Ry
     estimated scf accuracy    <       0.00000033 Ry

     iteration #  6     ecut=    50.00 Ry     beta= 0.70
     Davidson diagonalization with overlap
     ethr =  1.84E-09,  avg # of iterations =  2.0

     total cpu time spent up to now is       87.2 secs

     total energy              =    -117.81128607 Ry
     estimated scf accuracy    <       0.00000003 Ry

     iteration #  7     ecut=    50.00 Ry     beta= 0.70
     Davidson diagonalization with overlap
     ethr =  1.43E-10,  avg # of iterations =  2.0

     total cpu time spent up to now is       94.8 secs

     End of self-consistent calculation

          k = 0.0000 0.0000 0.0000 (  2085 PWs)   bands (ev):

    -6.6723  -6.6723  -6.6723  -6.5209  -6.5209  -3.9296   7.5603   7.5603
     7.5603   8.2508  11.6668  11.6668  11.6668  16.1259  16.9983  16.9983
    18.8001  18.8001  18.8001  21.4762  29.3282  29.3282  29.3282  31.2460
    31.6586  31.6586  31.6586  32.2613  32.2613  32.2620

          k =-0.0833 0.0833-0.0833 (  2049 PWs)   bands (ev):

    -6.6805  -6.6688  -6.6688  -6.5209  -6.5209  -3.8504   6.6456   7.4731
     7.4731   8.9158  11.6989  11.7999  11.7999  16.5408  16.6299  16.6299
    18.4531  19.4273  19.4273  22.1381  28.2781  28.4599  28.4599  31.1488
    31.1488  31.2466  31.9777  31.9777  32.3246  32.3963

          k =-0.1667 0.1667-0.1667 (  2022 PWs)   bands (ev):

    -6.7027  -6.6600  -6.6600  -6.5205  -6.5205  -3.6196   5.3795   7.2593
     7.2593   9.3534  12.0659  12.1040  12.1040  16.1873  16.1873  17.0570
    18.4847  20.6848  20.6848  23.5530  26.4861  26.6445  26.6445  31.0000
    31.0000  31.2471  32.1721  32.1721  32.5080  33.2349

          k =-0.2500 0.2500-0.2500 (  2033 PWs)   bands (ev):

    -6.7319  -6.6493  -6.6493  -6.5184  -6.5184  -3.2596   4.1271   7.0089
     7.0089   9.3497  12.3640  12.3640  12.8901  16.1600  16.1600  16.7215
    19.9310  22.1620  22.1620  24.3082  24.7498  24.7498  25.6648  30.9947
    30.9947  31.2467  32.4599  32.4599  32.7889  33.3175

          k =-0.3333 0.3333-0.3333 (  2030 PWs)   bands (ev):

    -6.7597  -6.6405  -6.6405  -6.5143  -6.5143  -2.8198   3.0111   6.7917
     6.7917   9.2101  12.4413  12.4413  13.8429  16.4739  16.6763  16.6763
    21.3982  22.6244  22.6244  23.1272  24.1363  24.1363  27.5417  30.8472
    30.8472  31.2456  32.1961  32.4505  32.4505  33.1187

          k =-0.4167 0.4167-0.4167 (  2045 PWs)   bands (ev):

    -6.7795  -6.6354  -6.6354  -6.5100  -6.5100  -2.4086   2.1802   6.6482
     6.6482   9.0954  12.4073  12.4073  14.5032  16.6936  17.5748  17.5748
    20.6233  21.1242  21.1242  24.4434  25.7921  25.7921  29.0028  29.9102
    29.9102  31.0182  31.2539  31.8495  31.8495  33.4062

          k = 0.5000-0.5000 0.5000 (  2036 PWs)   bands (ev):

    -6.7866  -6.6339  -6.6339  -6.5081  -6.5081  -2.2253   1.8549   6.5984
     6.5984   9.0538  12.3815  12.3815  14.6815  17.0484  18.2387  18.2387
    19.9172  20.2455  20.2455  25.7882  27.0527  27.0527  28.2030  28.7403
    28.7403  31.2472  31.7187  31.7187  32.5932  33.0857

          k = 0.0000 0.1667 0.0000 (  2033 PWs)   bands (ev):

    -6.6870  -6.6656  -6.6656  -6.5235  -6.5186  -3.8242   6.6124   7.3093
     7.3093   9.1809  11.3422  12.0147  12.0147  16.0356  16.7061  17.0657
    19.0331  19.0331  19.3323  22.4380  27.9616  27.9616  29.0725  30.2297
    30.4636  31.2471  32.0064  32.0064  33.3853  33.4221

          k =-0.0833 0.2500-0.0833 (  2031 PWs)   bands (ev):

    -6.7056  -6.6584  -6.6568  -6.5258  -6.5163  -3.6441   5.6634   7.0495
     7.1290   9.6903  11.2546  12.3915  12.3991  15.4887  16.8677  17.4015
    18.7122  19.8100  20.5025  23.6514  26.4500  26.4796  28.2182  29.7400
    29.8866  31.2469  32.1962  32.3469  33.7858  33.9256

          k =-0.1667 0.3333-0.1667 (  2035 PWs)   bands (ev):

    -6.7308  -6.6496  -6.6458  -6.5263  -6.5135  -3.3266   4.4866   6.7873
     6.8745   9.8189  11.6246  12.7191  12.8267  15.4267  16.7491  17.4057
    19.5386  21.1396  22.0550  24.4706  24.6199  25.2975  26.7141  29.7588
    29.7872  31.2467  32.4714  32.5683  33.8689  34.0784

          k =-0.2500 0.4167-0.2500 (  2031 PWs)   bands (ev):

    -6.7570  -6.6411  -6.6364  -6.5237  -6.5100  -2.9095   3.3575   6.5837
     6.5858   9.7096  12.0194  12.8246  13.3731  15.9475  17.0904  17.1145
    20.9865  22.3188  22.8396  23.1913  23.8576  24.7478  27.3891  29.7449
    29.9711  31.2459  32.1306  32.6349  32.9691  33.7818

          k =-0.3333 0.5000-0.3333 (  2031 PWs)   bands (ev):

    -6.7777  -6.6352  -6.6308  -6.5183  -6.5072  -2.4762   2.4363   6.3321
     6.4785   9.5847  12.1158  12.7461  14.1730  16.5185  17.3465  17.8706
    20.4750  21.0387  22.8737  23.7956  24.5900  25.8084  28.9874  29.3701
    30.1208  30.8657  31.2504  31.6472  32.0499  33.6323

          k = 0.5833-0.4167 0.5833 (  2033 PWs)   bands (ev):

    -6.7879  -6.6324  -6.6291  -6.5128  -6.5072  -2.1959   1.9286   6.1628
     6.4787   9.5177  12.1458  12.6254  14.7457  16.9018  18.1025  18.2492
    19.4917  20.3325  21.5322  25.4072  26.3085  27.0691  28.0986  28.9814
    29.5006  30.6227  31.1976  31.2473  32.2705  33.6970

          k = 0.5000-0.3333 0.5000 (  2033 PWs)   bands (ev):

    -6.7853  -6.6323  -6.6307  -6.5112  -6.5100  -2.2587   2.0381   6.0992
     6.5845   9.5279  12.2368  12.5423  14.6680  16.9722  17.3607  18.4826
    19.4084  21.3253  21.3438  24.6765  26.0357  26.9421  28.7126  28.7730
    29.9970  30.7899  31.0122  31.2470  31.7574  33.6829

          k = 0.4167-0.2500 0.4167 (  2035 PWs)   bands (ev):

    -6.7704  -6.6359  -6.6349  -6.5174  -6.5107  -2.6149   2.7117   6.1532
     6.7798   9.6109  12.3771  12.4873  13.9704  16.3516  16.8506  17.8783
    20.3807  22.3557  22.8701  23.1438  24.1735  25.4285  28.5142  29.3057
    30.6944  31.2424  31.5041  31.7327  31.8776  33.4905

          k = 0.3333-0.1667 0.3333 (  2036 PWs)   bands (ev):

    -6.7464  -6.6448  -6.6409  -6.5224  -6.5135  -3.0565   3.7182   6.3286
     7.0324   9.7291  12.3701  12.3794  13.1354  15.7079  16.7624  17.3645
    20.3520  22.0529  22.8806  23.4166  24.3906  24.9640  26.6344  29.3772
    30.5883  31.2464  32.2068  32.5867  33.3211  33.8735

          k = 0.2500-0.0833 0.2500 (  2031 PWs)   bands (ev):

    -6.7190  -6.6558  -6.6501  -6.5241  -6.5164  -3.4464   4.8637   6.6239
     7.2873   9.7502  11.8979  12.1177  12.7320  15.6063  16.4373  17.5895
    19.0012  20.5308  21.9353  24.4283  24.6247  26.3917  26.7255  29.3401
    30.4778  31.2468  32.1678  32.4009  34.0007  34.0793

          k = 0.1667-0.0000 0.1667 (  2039 PWs)   bands (ev):

    -6.6948  -6.6651  -6.6605  -6.5231  -6.5187  -3.7207   5.9460   7.0428
     7.4621   9.4128  11.6100  11.8573  12.3065  15.9873  16.5389  17.1268
    18.6976  19.3318  20.5365  23.0499  26.5499  27.7268  28.2031  29.7627
    30.7167  31.2467  32.0334  32.1786  33.3134  33.5812

          k = 0.0000 0.3333 0.0000 (  2017 PWs)   bands (ev):

    -6.7246  -6.6475  -6.6475  -6.5313  -6.5124  -3.5177   5.4094   6.7540
     6.7540  10.2036  10.7040  12.8623  12.8623  14.8393  17.2610  18.0598
    19.7255  19.7255  20.0075  24.6850  25.8953  25.8953  27.7231  28.3074
    29.9463  31.2473  32.3599  32.3599  33.9217  35.1864

          k =-0.0833 0.4167-0.0833 (  2029 PWs)   bands (ev):

    -6.7476  -6.6373  -6.6356  -6.5355  -6.5086  -3.2510   4.5967   6.4480
     6.4705  10.3810  10.7532  13.1751  13.3126  14.8355  17.2895  18.6124
    19.7570  20.6009  21.4614  24.4205  24.4564  26.0492  27.1763  27.9068
    29.3377  31.2469  32.5448  32.6202  33.7793  35.0523

          k =-0.1667 0.5000-0.1667 (  2030 PWs)   bands (ev):

    -6.7692  -6.6302  -6.6251  -6.5360  -6.5051  -2.8729   3.6179   6.0728
     6.2622  10.2888  11.3169  13.1142  13.5262  15.6599  17.5467  18.3467
    20.8104  21.8918  22.6984  22.7971  23.4663  25.9897  28.0191  28.0309
    28.7231  31.2454  31.6502  32.8959  33.1224  34.6393

          k =-0.2500 0.5833-0.2500 (  2034 PWs)   bands (ev):

    -6.7859  -6.6265  -6.6185  -6.5320  -6.5032  -2.4471   2.7184   5.7012
     6.1624  10.1917  11.8128  13.3801  13.4682  16.5779  18.1585  18.2371
    20.3925  21.0879  23.2465  23.6252  24.5235  25.5286  28.2646  28.3026
    29.3934  30.4386  31.2478  32.6826  32.6954  33.7772

          k = 0.6667-0.3333 0.6667 (  2042 PWs)   bands (ev):

    -6.7946  -6.6258  -6.6163  -6.5251  -6.5048  -2.1082   2.1102   5.4102
     6.1839  10.1493  11.9637  13.2902  14.1905  16.8825  18.2880  18.5680
    19.4926  20.5386  23.1150  24.8218  25.2614  26.8459  27.7051  28.5937
    28.9824  31.0111  31.1734  31.2477  32.2673  33.3925

          k = 0.5833-0.2500 0.5833 (  2028 PWs)   bands (ev):

    -6.7935  -6.6267  -6.6180  -6.5183  -6.5105  -2.0524   2.0206   5.2430
     6.3224  10.1807  12.0517  13.1091  14.6523  16.9688  17.2772  18.3587
    19.9809  21.5674  22.1124  24.2746  26.6171  26.8081  28.3614  28.7113
    29.4301  29.7272  30.4475  31.2477  33.0598  33.3599

          k = 0.5000-0.1667 0.5000 (  2028 PWs)   bands (ev):

    -6.7828  -6.6290  -6.6238  -6.5182  -6.5140  -2.3220   2.4901   5.2314
     6.5573  10.2717  12.2146  12.9419  13.9607  16.2104  17.6291  18.7415
    19.4856  22.3612  22.8703  23.0919  25.2899  26.6759  27.7851  29.0943
    29.9007  30.5442  30.9933  31.2483  31.9590  33.5714

          k = 0.4167-0.0833 0.4167 (  2032 PWs)   bands (ev):

    -6.7643  -6.6337  -6.6331  -6.5241  -6.5127  -2.7384   3.2955   5.4175
     6.8470  10.3577  12.3870  12.7177  13.0170  15.5036  17.8742  18.5021
    19.7488  21.2367  23.3122  24.1734  24.4733  25.5055  27.5755  27.9691
    29.6433  31.2460  32.0261  32.0974  32.6544  33.5268

          k = 0.3333 0.0000 0.3333 (  2027 PWs)   bands (ev):

    -6.7416  -6.6457  -6.6401  -6.5259  -6.5137  -3.1402   4.1597   5.8763
     7.1225  10.2452  12.0385  12.3909  12.8494  15.3229  17.0288  18.5253
    19.0972  21.3815  22.7032  23.3839  25.1696  26.4529  26.5054  27.8141
    29.7123  31.2467  32.2704  32.5482  34.1405  34.2897

          k = 0.0000 0.5000 0.0000 (  2020 PWs)   bands (ev):

    -6.7708  -6.6224  -6.6224  -6.5435  -6.5038  -3.0389   4.2266   6.1634
     6.1634  10.0600  10.6916  13.9521  13.9521  14.5001  17.5656  19.6672
    20.8456  20.8456  20.9598  23.8893  23.8893  25.8712  26.6150  27.4594
    29.9900  31.2471  32.6617  32.8320  32.8320  34.5409

          k =-0.0833 0.5833-0.0833 (  2032 PWs)   bands (ev):

    -6.7914  -6.6122  -6.6103  -6.5479  -6.4999  -2.7119   3.5465   5.8009
     5.9342  10.0250  10.7440  13.8729  14.3818  15.4434  17.8067  19.8640
    21.1807  21.7629  22.3868  22.6356  23.0037  25.4137  26.3082  28.5222
    29.8185  31.2254  31.2717  32.8559  33.1080  33.6020

          k =-0.1667 0.6667-0.1667 (  2039 PWs)   bands (ev):

    -6.8049  -6.6091  -6.6024  -6.5468  -6.4982  -2.3199   2.8232   5.3136
     5.8200  10.0916  11.2172  13.6663  14.4364  16.6172  18.3187  19.5702
    20.6197  21.1499  22.9628  23.1362  24.5017  25.4240  26.5367  28.0916
    29.1659  31.0700  31.2477  32.1226  32.7927  33.3872

          k = 0.7500-0.2500 0.7500 (  2044 PWs)   bands (ev):

    -6.8097  -6.6115  -6.5995  -6.5406  -6.5004  -1.9680   2.2571   4.8656
     5.8360  10.1227  11.9482  13.7577  14.2429  17.0180  18.3633  19.5499
    19.8673  20.6736  23.8674  24.4949  24.5019  26.5414  27.0159  27.4560
    28.3237  31.2462  31.3976  31.4883  32.4972  32.9154

          k = 0.6667-0.1667 0.6667 (  2040 PWs)   bands (ev):

    -6.8062  -6.6164  -6.6015  -6.5319  -6.5071  -1.8272   2.0567   4.5685
     5.9794  10.2296  12.3848  13.9678  14.3024  16.3004  17.3545  19.5570
    20.5663  21.6758  22.8006  24.0114  25.4975  26.7454  27.8343  28.2779
    29.1014  30.3559  30.5782  31.2462  31.9136  32.4443

          k = 0.5833-0.0833 0.5833 (  2040 PWs)   bands (ev):

    -6.7961  -6.6218  -6.6084  -6.5231  -6.5156  -1.9941   2.3071   4.4988
     6.2299  10.4145  12.5486  13.6453  14.0651  16.3217  16.5904  19.6859
    20.7749  21.9725  22.6979  23.1101  25.8567  26.8559  28.2970  28.4502
    29.4072  29.6969  31.2027  31.2480  32.0975  32.2331

          k = 0.5000 0.0000 0.5000 (  2029 PWs)   bands (ev):

    -6.7815  -6.6271  -6.6200  -6.5220  -6.5161  -2.3522   2.8081   4.7567
     6.5439  10.5648  12.6347  13.1497  13.2166  15.6720  17.9499  19.4331
    19.7941  20.8507  23.4152  24.3670  25.1375  26.0743  27.1196  28.3149
    30.3705  30.8412  31.0300  31.2505  32.2285  33.1561

          k = 0.0000 0.6667 0.0000 (  2044 PWs)   bands (ev):

    -6.8129  -6.5966  -6.5966  -6.5567  -6.4953  -2.4434   3.1183   5.6785
     5.6785   9.6273  10.4167  15.1589  15.1589  15.2134  17.9334  20.9423
    21.7387  21.7387  22.4073  22.6667  22.6667  24.5651  25.2352  28.9561
    30.3846  31.2481  31.4577  31.7710  31.7710  33.7140

          k =-0.0833 0.7500-0.0833 (  2037 PWs)   bands (ev):

    -6.8264  -6.5901  -6.5874  -6.5592  -6.4929  -2.1097   2.5932   5.3248
     5.5381   9.6839  10.3989  14.9323  15.5053  16.5182  18.2938  20.3326
    20.8905  21.5430  22.6569  23.4354  23.9700  25.0493  25.1239  28.2770
    29.3288  30.5849  30.8450  31.2479  32.5947  33.6882

          k = 0.8333-0.1667 0.8333 (  2040 PWs)   bands (ev):

    -6.8293  -6.5932  -6.5840  -6.5549  -6.4946  -1.7965   2.1751   4.7964
     5.5319   9.8159  11.0058  14.7495  15.3572  17.1140  18.4583  19.5894
    20.4313  21.4468  23.0897  24.2213  24.6131  25.8570  26.4507  27.3058
    28.4206  29.7065  30.4748  31.2475  32.3575  33.8991

          k = 0.7500-0.0833 0.7500 (  2044 PWs)   bands (ev):

    -6.8228  -6.6018  -6.5864  -6.5463  -6.5009  -1.6376   2.0063   4.3512
     5.6607   9.9549  11.9603  14.7394  14.9551  16.1820  17.6225  20.2408
    21.3282  21.4835  22.8243  24.0010  24.6878  26.4471  27.1177  28.1563
    28.9323  29.3858  30.2865  31.2466  31.9751  32.7439

          k = 0.6667-0.0000 0.6667 (  2035 PWs)   bands (ev):

    -6.8103  -6.6123  -6.5948  -6.5349  -6.5092  -1.7237   2.1085   4.1976
     5.9069  10.1831  12.6595  14.3750  14.6582  15.5266  16.7841  20.7744
    21.6160  21.8566  22.4870  22.8448  25.0479  27.0727  28.2199  28.7149
    29.2863  29.8218  29.9083  31.2453  31.4189  32.0061

          k = 0.0000 0.8333 0.0000 (  2032 PWs)   bands (ev):

    -6.8416  -6.5774  -6.5774  -6.5668  -6.4890  -1.8579   2.2168   5.3666
     5.3666   9.3979  10.0076  16.2448  16.3859  16.3859  18.2673  20.2746
    20.2746  21.3409  23.1495  24.2879  24.3927  24.3927  25.4237  27.8086
    29.1848  29.1848  29.3414  31.2477  33.0633  34.3254

          k = 0.9167-0.0833 0.9167 (  2047 PWs)   bands (ev):

    -6.8455  -6.5780  -6.5738  -6.5651  -6.4891  -1.6423   1.9439   5.0765
     5.3297   9.5230  10.1227  16.0416  16.4818  17.1663  18.4999  19.5052
    19.7972  21.6307  23.1255  24.0903  25.2663  25.6721  26.4268  27.1463
    28.1175  28.1536  29.1788  31.2469  32.1048  34.1822

          k = 0.8333 0.0000 0.8333 (  2056 PWs)   bands (ev):

    -6.8380  -6.5874  -6.5767  -6.5579  -6.4938  -1.5576   1.8962   4.6158
     5.4323   9.7113  10.9113  15.6313  15.8760  16.6122  18.1016  19.8283
    20.4652  22.2488  22.7018  24.2712  24.5089  26.5016  26.7920  27.7329
    27.9343  28.3845  30.0243  31.1372  31.2541  33.9898

          k = 0.0000-1.0000 0.0000 (  2044 PWs)   bands (ev):

    -6.8517  -6.5706  -6.5703  -6.5703  -6.4867  -1.5776   1.8291   5.2593
     5.2593   9.3384   9.8316  16.7748  17.1368  17.1368  18.4096  19.3956
    19.3956  21.0469  23.6463  23.9395  26.1868  26.1868  26.5887  27.1299
    27.1299  27.4515  28.1064  31.2473  32.3034  34.6430

          k =-0.1667 0.3333 0.0000 (  2029 PWs)   bands (ev):

    -6.7269  -6.6499  -6.6459  -6.5290  -6.5131  -3.4205   4.9508   6.4683
     7.0374  10.1472  11.1348  12.6765  12.8580  15.1556  16.8857  18.1407
    19.0402  20.2258  21.6090  24.5307  24.9052  25.9648  27.5686  28.7342
    29.5473  31.2461  31.6180  33.6041  34.0025  34.4907

          k =-0.2500 0.4167-0.0833 (  2026 PWs)   bands (ev):

    -6.7506  -6.6405  -6.6355  -6.5299  -6.5101  -3.0718   3.9903   6.0052
     6.8278  10.3002  11.5056  12.8827  13.0889  15.3601  17.1920  18.2042
    19.8245  21.5951  22.7369  23.1342  24.4959  26.0397  27.0375  28.2509
    29.5052  31.2453  31.5775  33.0185  33.9736  34.4178

          k =-0.3333 0.5000-0.1667 (  2036 PWs)   bands (ev):

    -6.7722  -6.6336  -6.6271  -6.5270  -6.5078  -2.6468   3.0165   5.7226
     6.5720  10.2192  11.9128  12.9547  13.4804  15.9729  17.6766  18.1899
    20.2046  21.9741  22.7198  23.6232  24.4932  25.2235  28.1674  28.6148
    29.6636  31.1261  31.2538  31.7561  32.9262  33.9964

          k = 0.5833-0.4167 0.7500 (  2032 PWs)   bands (ev):

    -6.7872  -6.6302  -6.6218  -6.5212  -6.5074  -2.2516   2.2576   5.5763
     6.3734  10.1309  11.9401  13.0138  14.2422  16.6468  17.7584  18.6259
    19.3905  21.2877  23.0230  23.7186  25.4396  26.7747  28.0464  28.9254
    29.6381  30.8941  31.2434  31.2779  31.5860  33.1422

          k = 0.5000-0.3333 0.6667 (  2024 PWs)   bands (ev):

    -6.7926  -6.6292  -6.6200  -6.5174  -6.5084  -2.0768   1.9566   5.5324
     6.2988  10.0973  11.9112  13.0089  14.7606  16.8207  17.8154  18.5411
    19.3192  21.1245  22.0207  25.0411  26.1876  27.0189  28.2372  28.9553
    29.1675  30.0908  30.5967  31.2478  32.6523  33.3386

          k =-0.1667 0.5000 0.0000 (  2027 PWs)   bands (ev):

    -6.7694  -6.6270  -6.6234  -6.5398  -6.5047  -2.9534   3.9469   5.8763
     6.3523  10.5027  10.8056  13.1783  13.8649  15.1824  17.5761  19.3274
    19.9103  21.6022  22.5072  22.7771  23.9562  25.9948  27.3371  27.9037
    29.0347  31.2460  31.7498  32.5251  33.7759  34.3204

          k =-0.2500 0.5833-0.0833 (  2038 PWs)   bands (ev):

    -6.7871  -6.6218  -6.6129  -6.5399  -6.5025  -2.5652   3.1725   5.4215
     6.1297  10.5483  11.2854  12.9492  14.2211  15.9031  18.2416  19.1621
    20.2485  21.6005  22.5202  23.3757  24.3838  25.4074  27.3303  28.2923
    29.4853  30.5930  31.2477  31.9244  32.8718  34.0951

          k = 0.6667-0.3333 0.8333 (  2038 PWs)   bands (ev):

    -6.7982  -6.6210  -6.6064  -6.5354  -6.5030  -2.1681   2.4669   5.0946
     5.9591  10.5221  11.8236  13.0559  14.3019  16.5806  18.7818  18.8236
    19.6196  21.2959  22.9607  24.1552  25.0650  26.3969  27.2496  27.8947
    28.9448  31.0612  31.2465  31.8696  32.2593  32.6445

          k = 0.5833-0.2500 0.7500 (  2031 PWs)   bands (ev):

    -6.8017  -6.6224  -6.6045  -6.5290  -6.5066  -1.9190   2.0674   4.8787
     5.9383  10.5546  11.9327  13.4691  14.5663  16.2807  18.2902  19.0140
    19.6350  21.5264  22.9561  24.4237  25.5177  26.8001  27.6703  28.4887
    28.9575  30.4603  30.7623  31.2468  32.1028  32.4568

          k = 0.5000-0.1667 0.6667 (  2040 PWs)   bands (ev):

    -6.7975  -6.6246  -6.6071  -6.5255  -6.5103  -1.9798   2.1669   4.7974
     6.0740  10.6504  11.9581  13.3682  14.5752  16.1675  17.5867  19.0496
    20.2312  21.9057  22.8715  23.3592  26.1451  26.8336  27.9951  28.6195
    28.9045  30.2077  30.8757  31.2462  31.9786  32.5901

          k = 0.4167-0.0833 0.5833 (  2036 PWs)   bands (ev):

    -6.7865  -6.6273  -6.6142  -6.5283  -6.5097  -2.3043   2.6950   4.9078
     6.3243  10.7599  12.0209  12.8049  14.0662  15.9057  18.1486  19.1866
    19.6685  21.5518  22.7096  24.2209  25.1811  26.2838  27.1253  28.5260
    29.8158  30.6432  31.2428  31.4073  32.0867  32.4599

          k = 0.3333 0.0000 0.5000 (  2038 PWs)   bands (ev):

    -6.7702  -6.6320  -6.6248  -6.5309  -6.5088  -2.7105   3.3790   5.2966
     6.6147  10.7317  11.7124  12.6413  13.5915  15.4625  18.1677  19.1330
    19.4564  21.0405  23.2274  23.8372  24.6678  25.7001  27.1504  28.2858
    29.3159  31.2394  31.3579  31.5764  33.5540  33.7035

          k =-0.1667 0.6667-0.0000 (  2036 PWs)   bands (ev):

    -6.8084  -6.6045  -6.5983  -6.5516  -6.4970  -2.3773   2.9925   5.4096
     5.7257  10.0976  10.6940  13.8621  15.1474  15.9685  18.2783  20.1771
    20.8744  21.6064  22.2089  23.2547  23.9362  24.7984  26.1444  28.5446
    29.6989  30.9467  31.2471  31.6901  32.6925  32.8757

          k = 0.7500-0.2500 0.9167 (  2039 PWs)   bands (ev):

    -6.8167  -6.6045  -6.5909  -6.5494  -6.4975  -2.0149   2.4576   4.9608
     5.5548  10.2887  11.1434  13.6456  15.3612  16.6029  18.9060  19.2921
    20.6160  21.1648  22.7279  23.9289  24.7533  26.0180  26.4894  27.7201
    28.4493  30.2137  31.2466  31.7260  32.3088  33.4396

          k = 0.6667-0.1667 0.8333 (  2037 PWs)   bands (ev):

    -6.8165  -6.6095  -6.5889  -6.5429  -6.5019  -1.7478   2.1070   4.5499
     5.5555  10.3867  11.9633  13.5820  15.1377  16.3378  18.5085  19.4016
    20.6550  21.3668  23.2467  24.1526  25.1838  26.1678  26.9704  28.2217
    28.4685  29.5971  31.2466  31.5094  31.9252  32.9086

          k = 0.5833-0.0833 0.7500 (  2042 PWs)   bands (ev):

    -6.8098  -6.6162  -6.5922  -6.5348  -6.5085  -1.7232   2.0878   4.3248
     5.7183  10.5579  12.4522  13.5886  15.0002  15.6380  17.4774  20.2208
    20.9335  22.0114  22.7587  23.3146  25.3548  26.7811  27.5032  29.0606
    29.2830  29.3315  30.6047  31.2450  31.6054  32.1265

          k = 0.5000 0.0000 0.6667 (  2032 PWs)   bands (ev):

    -6.7992  -6.6222  -6.6011  -6.5292  -6.5121  -1.9540   2.3555   4.4138
     5.9987  10.7711  12.5112  12.9129  14.8035  15.8058  17.1170  20.2974
    20.8106  21.4419  22.4350  23.5754  25.7719  26.8488  28.0188  28.1821
    28.9274  30.2722  30.9217  31.2473  31.6589  32.7329

          k = 0.8333-0.1667 1.0000 (  2044 PWs)   bands (ev):

    -6.8350  -6.5871  -6.5802  -6.5598  -6.4920  -1.8201   2.2039   5.1352
     5.2879   9.8508  10.3715  14.9357  16.3135  16.7167  18.7570  19.5066
    20.3008  21.8881  22.7635  23.9663  24.4008  25.6696  26.1119  27.4389
    28.3521  29.4507  30.3364  31.2474  32.7767  32.9541

          k = 0.7500-0.0833 0.9167 (  2044 PWs)   bands (ev):

    -6.8331  -6.5934  -6.5785  -6.5544  -6.4956  -1.6068   1.9789   4.6950
     5.2553  10.1006  10.9817  14.7194  15.7004  16.9841  18.6529  19.4252
    20.2523  22.2717  22.8230  24.4993  24.6362  25.7835  26.9659  27.4459
    27.9595  29.2466  30.4210  31.2468  31.7297  32.7748

          k = 0.6667 0.0000 0.8333 (  2043 PWs)   bands (ev):

    -6.8231  -6.6046  -6.5821  -6.5457  -6.5023  -1.5713   1.9775   4.3242
     5.4237  10.2998  11.9713  14.3905  14.8115  16.4571  17.8501  20.2164
    20.9446  22.0486  23.0140  23.7607  24.8298  26.2023  27.2667  27.6935
    28.7810  30.1415  30.5169  31.2466  31.7231  32.4031

          k =-0.1667-1.0000-0.0000 (  2048 PWs)   bands (ev):

    -6.8445  -6.5801  -6.5753  -6.5615  -6.4904  -1.5588   1.8636   5.0869
     5.0911   9.7757  10.2292  15.9430  16.0766  17.4615  18.6679  19.4034
    19.5202  21.9516  23.1488  24.1324  25.7613  26.0008  26.0113  27.1257
    27.8616  28.7539  28.8930  31.2461  31.7534  33.1154

          k = 0.6667-0.3333 1.0000 (  2036 PWs)   bands (ev):

    -6.7998  -6.6189  -6.6009  -6.5400  -6.5032  -2.1968   2.6881   4.8762
     5.8608  11.1134  11.3587  12.6473  15.0657  15.9182  18.6676  19.3281
    20.3145  21.3290  22.2603  24.2091  25.0851  25.9718  27.1464  27.9443
    29.1214  30.4543  31.2360  31.3330  32.0539  33.2727

          k = 0.5833-0.2500 0.9167 (  2034 PWs)   bands (ev):

    -6.8070  -6.6189  -6.5930  -6.5369  -6.5061  -1.8649   2.2536   4.5751
     5.6039  11.1992  11.8205  12.7848  15.2992  15.9149  18.0921  19.7840
    20.5629  21.5130  22.7791  23.5696  26.0932  26.4899  27.2815  28.1016
    28.6417  29.6841  31.1385  31.2531  31.8471  33.1904

          k = 0.5000-0.1667 0.8333 (  2042 PWs)   bands (ev):

    -6.8093  -6.6193  -6.5904  -6.5347  -6.5079  -1.7227   2.0678   4.4859
     5.5015  11.2122  11.8532  13.2757  15.0094  15.7634  18.6825  19.1409
    20.4869  22.0691  22.8865  24.0477  25.1873  26.6072  27.2134  28.8831
    29.2499  29.5669  30.6772  31.2452  31.7332  31.8913

          k = 0.6667-0.1667 1.0000 (  2034 PWs)   bands (ev):

    -6.8208  -6.6069  -6.5830  -6.5471  -6.5003  -1.7270   2.1567   4.6895
     5.1950  10.9463  11.2459  13.3894  15.6020  16.5850  18.6309  19.7385
    20.3301  21.7369  23.0322  23.6484  25.4772  26.2627  27.0682  27.5929
    28.0855  29.2334  31.2267  31.2644  32.3401  33.2181

          k = 0.5833-0.0833 0.9167 (  2042 PWs)   bands (ev):

    -6.8187  -6.6121  -6.5806  -6.5423  -6.5048  -1.5704   2.0139   4.4556
     5.0752  11.1861  11.9743  13.2846  14.5283  16.9425  18.8601  19.2791
    20.5492  21.9222  23.5346  24.2454  25.1043  25.9164  26.6823  27.3146
    29.1962  30.2799  31.2045  31.2475  31.9685  32.6057

          k = 0.5000 0.0000 0.8333 (  2038 PWs)   bands (ev):

    -6.8136  -6.6165  -6.5838  -6.5384  -6.5076  -1.6290   2.0740   4.3597
     5.2571  11.3491  12.2219  12.9139  14.5915  16.5401  18.0901  20.2434
    20.5770  21.7850  23.3171  23.4807  25.7861  26.1796  26.9579  27.6643
    29.3120  30.0729  31.1664  31.2394  31.3607  32.6669

          k =-0.3333-1.0000 0.0000 (  2044 PWs)   bands (ev):

    -6.8283  -6.6016  -6.5773  -6.5491  -6.4996  -1.5207   1.9388   4.7740
     4.8024  10.8547  11.1838  14.3639  14.6502  17.6566  18.8181  19.5546
    19.6239  22.4270  23.4975  24.6323  25.2992  25.4201  25.6961  27.4355
    28.6302  30.4823  31.0944  31.2502  31.4852  31.7274

          k =-0.5000-1.0000 0.0000 (  2048 PWs)   bands (ev):

    -6.8189  -6.6136  -6.5779  -6.5415  -6.5062  -1.5012   1.9801   4.6279
     4.6748  11.8645  11.9343  13.1369  13.7852  17.7230  18.8553  19.6267
    19.6681  22.1110  24.2987  24.9480  25.0361  25.1930  26.1247  26.6205
    29.5376  31.2462  31.5517  31.6007  31.9980  32.0603

     highest occupied, lowest unoccupied level (ev):     7.5603    8.2508

!    total energy              =    -117.81128608 Ry
     estimated scf accuracy    <          2.3E-10 Ry

     The total energy is the sum of the following terms:
     one-electron contribution =     -41.11289377 Ry
     hartree contribution      =      30.29548468 Ry
     xc contribution           =     -17.39275169 Ry
     ewald contribution        =     -89.60112530 Ry

     convergence has been achieved in   7 iterations

     Writing all to output data dir ./tmp/InP_example/InP_example.save/ :
     XML data file, charge density, pseudopotentials, collected wavefunctions

     init_run     :      3.38s CPU      3.75s WALL (       1 calls)
     electrons    :     92.78s CPU     91.02s WALL (       1 calls)

     Called by init_run:
     wfcinit      :      2.77s CPU      3.08s WALL (       1 calls)
     potinit      :      0.32s CPU      0.36s WALL (       1 calls)
     hinit0       :      0.25s CPU      0.28s WALL (       1 calls)

     Called by electrons:
     c_bands      :     87.03s CPU     89.64s WALL (       8 calls)
     sum_band     :      5.40s CPU      0.93s WALL (       8 calls)
     v_of_rho     :      0.33s CPU      0.44s WALL (       8 calls)
     mix_rho      :      0.03s CPU      0.03s WALL (       8 calls)

     Called by c_bands:
     init_us_2    :      0.80s CPU      0.88s WALL (    1224 calls)
     cegterg      :     84.54s CPU     89.39s WALL (     576 calls)

     Called by *egterg:
     cdiaghg      :      3.46s CPU      3.76s WALL (    2688 calls)
     h_psi        :     43.43s CPU     44.86s WALL (    2832 calls)
     g_psi        :      0.70s CPU      0.77s WALL (    2184 calls)

     Called by h_psi:
     h_psi:calbec :      4.74s CPU      2.68s WALL (    2832 calls)
     vloc_psi     :     33.38s CPU     36.39s WALL (    2832 calls)
     add_vuspsi   :      5.03s CPU      5.47s WALL (    2832 calls)

     General routines
     calbec       :      4.73s CPU      2.68s WALL (    2832 calls)
     fft          :      0.31s CPU      0.33s WALL (      94 calls)
     ffts         :      0.26s CPU      0.29s WALL (      16 calls)
     fftw         :     28.83s CPU     26.49s WALL (  119474 calls)
     interpolate  :      0.27s CPU      0.29s WALL (       8 calls)

     Parallel routines

     PWSCF        :   1m36.20s CPU   1m34.95s WALL


   This run was terminated on:  17:29:50  16Jun2025            

=------------------------------------------------------------------------------=
   JOB DONE.
=------------------------------------------------------------------------------=
